
     Program PWSCF v.7.3 starts on 28Apr2026 at  3: 5:44 

     This program is part of the open-source Quantum ESPRESSO suite
     for quantum simulation of materials; please cite
         "P. Giannozzi et al., J. Phys.:Condens. Matter 21 395502 (2009);
         "P. Giannozzi et al., J. Phys.:Condens. Matter 29 465901 (2017);
         "P. Giannozzi et al., J. Chem. Phys. 152 154105 (2020);
          URL http://www.quantum-espresso.org", 
     in publications or presentations arising from this work. More details at
     http://www.quantum-espresso.org/quote

     Parallel version (MPI), running on    24 processors

     MPI processes distributed on     1 nodes
     177224 MiB available memory on the printing compute node when the environment starts

     Reading input from FE_slab.in

     Current dimensions of program PWSCF are:
     Max number of different atomic species (ntypx) = 10
     Max number of k-points (npk) =  40000
     Max angular momentum in pseudopotentials (lmaxx) =  4
     Presently no symmetry can be used with electric field

     Presently stress not available with electric field and gates

     Message from routine iosys:
     pot_extrapolation='second_order' not available, using 'atomic'
     Message from routine iosys:
     wfc_extrapolation='second_order' not available, using 'atomic'

     File ./Outputs/irontfa_newer.update deleted, as requested

     File ./Outputs/irontfa_newer.bfgs deleted, as requested
     file Fe.UPF: wavefunction(s)  3P 3D renormalized

     IMPORTANT: XC functional enforced from input :
     Exchange-correlation= PBE
                           (   1   4   3   4   0   0   0)
     Any further DFT definition will be discarded
     Please, verify this is what you really want

     Found identity + (  0.3333  0.0000  0.0000) symmetry
     This is a supercell, fractional translations are disabled

     R & G space division:  proc/nbgrp/npool/nimage =      24
     Subspace diagonalization in iterative solution of the eigenvalue problem:
     one sub-group per band group will be used
     custom distributed-memory algorithm (size of sub-group:  3*  3 procs)


     Parallelization info
     --------------------
     sticks:   dense  smooth     PW     G-vecs:    dense   smooth      PW
     Min         298     149     40                55202    19515    2792
     Max         299     150     41                55210    19524    2803
     Sum        7153    3585    977              1324965   468413   67151

     Using Slab Decomposition



     bravais-lattice index     =            0
     lattice parameter (alat)  =      16.2705  a.u.
     unit-cell volume          =    7459.8003 (a.u.)^3
     number of atoms/cell      =           36
     number of atomic types    =            1
     number of electrons       =       576.00
     number of Kohn-Sham states=          346
     kinetic-energy cutoff     =      60.0000  Ry
     charge density cutoff     =     480.0000  Ry
     scf convergence threshold =      1.0E-07
     mixing beta               =       0.2000
     number of iterations used =            8  local-TF  mixing
     energy convergence thresh.=      7.3E-07
     force convergence thresh. =      7.7E-04
     Exchange-correlation= PBE
                           (   1   4   3   4   0   0   0)
     nstep                     =           50


     celldm(1)=  16.270542  celldm(2)=   0.000000  celldm(3)=   0.000000
     celldm(4)=   0.000000  celldm(5)=   0.000000  celldm(6)=   0.000000

     crystal axes: (cart. coord. in units of alat)
               a(1) = (   1.000000   0.000000   0.000000 )  
               a(2) = (   0.500000   0.707107   0.000000 )  
               a(3) = (   0.000000   0.000000   2.449267 )  

     reciprocal axes: (cart. coord. in units 2 pi/alat)
               b(1) = (  1.000000 -0.707107  0.000000 )  
               b(2) = (  0.000000  1.414214  0.000000 )  
               b(3) = (  0.000000  0.000000  0.408285 )  


     PseudoPot. # 1 for Fe read from file:
     ./Pseudopotentials/Fe.UPF
     MD5 check sum: d27ee10e6da873e3f1670f15abb69e09
     Pseudo is Projector augmented-wave + core cor, Zval = 16.0
     Generated using 'atomic' code by A. Dal Corso  v.7.2
     Shape of augmentation charge: PSQ
     Using radial grid of 1191 points,  6 beta functions with: 
                l(1) =   0
                l(2) =   0
                l(3) =   1
                l(4) =   1
                l(5) =   2
                l(6) =   2
     Q(r) pseudized with 0 coefficients 


     atomic species   valence    mass     pseudopotential
     Fe               16.00    55.84500     Fe( 1.00)

     Starting magnetic structure 
     atomic species   magnetization
     Fe              0.300

     No symmetry found



   Cartesian axes

     site n.     atom                  positions (alat units)
         1        Fe     tau(   1) = (   1.0000000   0.2357023   0.8710801  )
         2        Fe     tau(   2) = (   0.3333333   0.2357023   0.8710801  )
         3        Fe     tau(   3) = (   0.6666667   0.2357023   0.8710801  )
         4        Fe     tau(   4) = (   1.1666667   0.4714045   0.8710801  )
         5        Fe     tau(   5) = (   0.5000000   0.4714045   0.8710801  )
         6        Fe     tau(   6) = (   0.8333333   0.4714045   0.8710801  )
         7        Fe     tau(   7) = (   0.8333333   0.0000000   0.8710801  )
         8        Fe     tau(   8) = (   0.1666667   0.0000000   0.8710801  )
         9        Fe     tau(   9) = (   0.5000000   0.0000000   0.8710801  )
        10        Fe     tau(  10) = (   0.0000000   0.0000000   1.1067824  )
        11        Fe     tau(  11) = (   0.3333333   0.0000000   1.1067824  )
        12        Fe     tau(  12) = (   0.6666667   0.0000000   1.1067824  )
        13        Fe     tau(  13) = (   0.1666667   0.2357023   1.1067824  )
        14        Fe     tau(  14) = (   0.5000000   0.2357023   1.1067824  )
        15        Fe     tau(  15) = (   0.8333333   0.2357023   1.1067824  )
        16        Fe     tau(  16) = (   0.3333333   0.4714045   1.1067824  )
        17        Fe     tau(  17) = (   0.6666667   0.4714045   1.1067824  )
        18        Fe     tau(  18) = (   1.0000000   0.4714045   1.1067824  )
        19        Fe     tau(  19) = (   1.0000000   0.2357023   1.3424847  )
        20        Fe     tau(  20) = (   0.3333333   0.2357023   1.3424847  )
        21        Fe     tau(  21) = (   0.6666667   0.2357023   1.3424847  )
        22        Fe     tau(  22) = (   1.1666667   0.4714045   1.3424847  )
        23        Fe     tau(  23) = (   0.5000000   0.4714045   1.3424847  )
        24        Fe     tau(  24) = (   0.8333333   0.4714045   1.3424847  )
        25        Fe     tau(  25) = (   0.8333333   0.0000000   1.3424847  )
        26        Fe     tau(  26) = (   0.1666667   0.0000000   1.3424847  )
        27        Fe     tau(  27) = (   0.5000000   0.0000000   1.3424847  )
        28        Fe     tau(  28) = (   0.0000000   0.0000000   1.5781869  )
        29        Fe     tau(  29) = (   0.3333333   0.0000000   1.5781869  )
        30        Fe     tau(  30) = (   0.6666667   0.0000000   1.5781869  )
        31        Fe     tau(  31) = (   0.1666667   0.2357023   1.5781869  )
        32        Fe     tau(  32) = (   0.5000000   0.2357023   1.5781869  )
        33        Fe     tau(  33) = (   0.8333333   0.2357023   1.5781869  )
        34        Fe     tau(  34) = (   0.3333333   0.4714045   1.5781869  )
        35        Fe     tau(  35) = (   0.6666667   0.4714045   1.5781869  )
        36        Fe     tau(  36) = (   1.0000000   0.4714045   1.5781869  )

     --------------------------------------------
     DFT-D3 Dispersion Correction (3-body terms):
     --------------------------------------------
       Reference C6 values for interpolation: 

         atom   Coordination number   C6
         Fe         0.000           982.67
         Fe         1.648           409.99
         Fe         9.138           219.01

       Values used:

         atom   Coordination number  R0_AB[au]  C6      C8
         Fe         6.737            3.252    219.01  20487.87
         Fe         6.737            3.252    219.01  20487.87
         Fe         6.737            3.252    219.01  20487.87
         Fe         6.737            3.252    219.01  20487.87
         Fe         6.737            3.252    219.01  20487.87
         Fe         6.737            3.252    219.01  20487.87
         Fe         6.737            3.252    219.01  20487.87
         Fe         6.737            3.252    219.01  20487.87
         Fe         6.737            3.252    219.01  20487.87
         Fe         9.236            3.252    219.01  20487.87
         Fe         9.236            3.252    219.01  20487.87
         Fe         9.236            3.252    219.01  20487.87
         Fe         9.236            3.252    219.01  20487.87
         Fe         9.236            3.252    219.01  20487.87
         Fe         9.236            3.252    219.01  20487.87
         Fe         9.236            3.252    219.01  20487.87
         Fe         9.236            3.252    219.01  20487.87
         Fe         9.236            3.252    219.01  20487.87
         Fe         9.236            3.252    219.01  20487.87
         Fe         9.236            3.252    219.01  20487.87
         Fe         9.236            3.252    219.01  20487.87
         Fe         9.236            3.252    219.01  20487.87
         Fe         9.236            3.252    219.01  20487.87
         Fe         9.236            3.252    219.01  20487.87
         Fe         9.236            3.252    219.01  20487.87
         Fe         9.236            3.252    219.01  20487.87
         Fe         9.236            3.252    219.01  20487.87
         Fe         6.737            3.252    219.01  20487.87
         Fe         6.737            3.252    219.01  20487.87
         Fe         6.737            3.252    219.01  20487.87
         Fe         6.737            3.252    219.01  20487.87
         Fe         6.737            3.252    219.01  20487.87
         Fe         6.737            3.252    219.01  20487.87
         Fe         6.737            3.252    219.01  20487.87
         Fe         6.737            3.252    219.01  20487.87
         Fe         6.737            3.252    219.01  20487.87

         Molecular C6 ( Ry / a.u.^6 ) =    283834.63


     number of k points=    13  Marzari-Vanderbilt smearing, width (Ry)=  0.0100
                       cart. coord. in units 2pi/alat
        k(    1) = (   0.0000000   0.0000000   0.0000000), wk =   0.0400000
        k(    2) = (   0.0000000   0.2828427   0.0000000), wk =   0.0800000
        k(    3) = (   0.0000000   0.5656854   0.0000000), wk =   0.0800000
        k(    4) = (   0.2000000  -0.1414214   0.0000000), wk =   0.0800000
        k(    5) = (   0.2000000   0.1414214   0.0000000), wk =   0.0800000
        k(    6) = (   0.2000000   0.4242641   0.0000000), wk =   0.0800000
        k(    7) = (   0.2000000  -0.7071068   0.0000000), wk =   0.0800000
        k(    8) = (   0.2000000  -0.4242641   0.0000000), wk =   0.0800000
        k(    9) = (   0.4000000  -0.2828427   0.0000000), wk =   0.0800000
        k(   10) = (   0.4000000   0.0000000   0.0000000), wk =   0.0800000
        k(   11) = (   0.4000000   0.2828427   0.0000000), wk =   0.0800000
        k(   12) = (   0.4000000  -0.8485281   0.0000000), wk =   0.0800000
        k(   13) = (   0.4000000  -0.5656854   0.0000000), wk =   0.0800000

     Dense  grid:  1324965 G-vectors     FFT dimensions: ( 120, 100, 288)

     Smooth grid:   468413 G-vectors     FFT dimensions: (  81,  72, 200)

     Estimated max dynamical RAM per process >     675.57 MB

     Estimated total dynamical RAM >      15.83 GB

     Check: negative core charge=   -0.000001
     Generating pointlists ...
     new r_m :   0.1191 (alat units)  1.9375 (a.u.) for type    1

     Initial potential from superposition of free atoms

     starting charge     575.9842, renormalised to     576.0000

     negative rho (up, down):  5.911E-04 3.183E-04

     Adding external electric field

     Computed dipole along edir(3) : 
        Dipole               -0.0000 Ry au,         -0.0000 Debye
        Dipole field         -0.0000 Ry au, 

        Potential amp.        0.0000 Ry
        Total length         35.8658 bohr


     Adding external electric field

     Computed dipole along edir(3) : 
        Dipole               -0.0000 Ry au,         -0.0000 Debye
        Dipole field         -0.0000 Ry au, 

        Potential amp.        0.0000 Ry
        Total length         35.8658 bohr

     Starting wfcs are  360 randomized atomic wfcs
     Checking if some PAW data can be deallocated... 

     total cpu time spent up to now is       31.2 secs

     Self-consistent Calculation

     iteration #  1     ecut=    60.00 Ry     beta= 0.20
     Davidson diagonalization with overlap
     ethr =  1.00E-02,  avg # of iterations =  5.3

     negative rho (up, down):  1.523E-03 1.075E+00

     Adding external electric field

     Computed dipole along edir(3) : 
        Dipole                0.0329 Ry au,          0.0837 Debye
        Dipole field          0.0001 Ry au, 

        Potential amp.       -0.0040 Ry
        Total length         35.8658 bohr


     Adding external electric field

     Computed dipole along edir(3) : 
        Dipole                0.0329 Ry au,          0.0837 Debye
        Dipole field          0.0001 Ry au, 

        Potential amp.       -0.0040 Ry
        Total length         35.8658 bohr


     total cpu time spent up to now is      154.1 secs

     total energy              =  -11841.22546686 Ry
     estimated scf accuracy    <     214.64298524 Ry

     total magnetization       =   108.14 Bohr mag/cell
     absolute magnetization    =   137.59 Bohr mag/cell

     iteration #  2     ecut=    60.00 Ry     beta= 0.20
     Davidson diagonalization with overlap
     ethr =  1.00E-02,  avg # of iterations =  3.2

     negative rho (up, down):  2.772E-04 9.089E-01

     Adding external electric field

     Computed dipole along edir(3) : 
        Dipole                0.0746 Ry au,          0.1897 Debye
        Dipole field          0.0001 Ry au, 

        Potential amp.       -0.0090 Ry
        Total length         35.8658 bohr


     Adding external electric field

     Computed dipole along edir(3) : 
        Dipole                0.0746 Ry au,          0.1897 Debye
        Dipole field          0.0001 Ry au, 

        Potential amp.       -0.0090 Ry
        Total length         35.8658 bohr


     total cpu time spent up to now is      242.2 secs

     total energy              =  -11850.72871475 Ry
     estimated scf accuracy    <      22.29089876 Ry

     total magnetization       =   105.91 Bohr mag/cell
     absolute magnetization    =   111.81 Bohr mag/cell

     iteration #  3     ecut=    60.00 Ry     beta= 0.20
     Davidson diagonalization with overlap
     ethr =  3.87E-03,  avg # of iterations =  1.5

     negative rho (up, down):  4.800E-07 6.327E-01

     Adding external electric field

     Computed dipole along edir(3) : 
        Dipole                0.1804 Ry au,          0.4586 Debye
        Dipole field          0.0003 Ry au, 

        Potential amp.       -0.0218 Ry
        Total length         35.8658 bohr


     Adding external electric field

     Computed dipole along edir(3) : 
        Dipole                0.1804 Ry au,          0.4586 Debye
        Dipole field          0.0003 Ry au, 

        Potential amp.       -0.0218 Ry
        Total length         35.8658 bohr


     total cpu time spent up to now is      323.4 secs

     total energy              =  -11851.38765131 Ry
     estimated scf accuracy    <      13.25545570 Ry

     total magnetization       =   105.04 Bohr mag/cell
     absolute magnetization    =   108.66 Bohr mag/cell

     iteration #  4     ecut=    60.00 Ry     beta= 0.20
     Davidson diagonalization with overlap
     ethr =  2.30E-03,  avg # of iterations =  1.2

     negative rho (up, down):  2.192E-07 2.382E-01

     Adding external electric field

     Computed dipole along edir(3) : 
        Dipole                0.3746 Ry au,          0.9522 Debye
        Dipole field          0.0006 Ry au, 

        Potential amp.       -0.0453 Ry
        Total length         35.8658 bohr


     Adding external electric field

     Computed dipole along edir(3) : 
        Dipole                0.3746 Ry au,          0.9522 Debye
        Dipole field          0.0006 Ry au, 

        Potential amp.       -0.0453 Ry
        Total length         35.8658 bohr


     total cpu time spent up to now is      399.5 secs

     total energy              =  -11851.89314677 Ry
     estimated scf accuracy    <       7.90757417 Ry

     total magnetization       =   102.17 Bohr mag/cell
     absolute magnetization    =   105.69 Bohr mag/cell

     iteration #  5     ecut=    60.00 Ry     beta= 0.20
     Davidson diagonalization with overlap
     ethr =  1.37E-03,  avg # of iterations =  2.1

     negative rho (up, down):  2.588E-07 2.065E-02

     Adding external electric field

     Computed dipole along edir(3) : 
        Dipole                0.6956 Ry au,          1.7679 Debye
        Dipole field          0.0012 Ry au, 

        Potential amp.       -0.0840 Ry
        Total length         35.8658 bohr


     Adding external electric field

     Computed dipole along edir(3) : 
        Dipole                0.6956 Ry au,          1.7679 Debye
        Dipole field          0.0012 Ry au, 

        Potential amp.       -0.0840 Ry
        Total length         35.8658 bohr


     total cpu time spent up to now is      484.1 secs

     total energy              =  -11852.40993902 Ry
     estimated scf accuracy    <       3.46220595 Ry

     total magnetization       =    98.70 Bohr mag/cell
     absolute magnetization    =   102.69 Bohr mag/cell

     iteration #  6     ecut=    60.00 Ry     beta= 0.20
     Davidson diagonalization with overlap
     ethr =  6.01E-04,  avg # of iterations =  3.7

     negative rho (up, down):  0.000E+00 1.411E-02

     Adding external electric field

     Computed dipole along edir(3) : 
        Dipole                0.8451 Ry au,          2.1481 Debye
        Dipole field          0.0014 Ry au, 

        Potential amp.       -0.1021 Ry
        Total length         35.8658 bohr


     Adding external electric field

     Computed dipole along edir(3) : 
        Dipole                0.8451 Ry au,          2.1481 Debye
        Dipole field          0.0014 Ry au, 

        Potential amp.       -0.1021 Ry
        Total length         35.8658 bohr


     total cpu time spent up to now is      578.3 secs

     total energy              =  -11852.70097560 Ry
     estimated scf accuracy    <       0.74599889 Ry

     total magnetization       =    93.99 Bohr mag/cell
     absolute magnetization    =    98.56 Bohr mag/cell

     iteration #  7     ecut=    60.00 Ry     beta= 0.20
     Davidson diagonalization with overlap
     ethr =  1.30E-04,  avg # of iterations =  7.9

     negative rho (up, down):  0.000E+00 1.153E-02

     Adding external electric field

     Computed dipole along edir(3) : 
        Dipole                0.8935 Ry au,          2.2710 Debye
        Dipole field          0.0015 Ry au, 

        Potential amp.       -0.1080 Ry
        Total length         35.8658 bohr


     Adding external electric field

     Computed dipole along edir(3) : 
        Dipole                0.8935 Ry au,          2.2710 Debye
        Dipole field          0.0015 Ry au, 

        Potential amp.       -0.1080 Ry
        Total length         35.8658 bohr


     total cpu time spent up to now is      679.5 secs

     total energy              =  -11852.72026538 Ry
     estimated scf accuracy    <       0.70035895 Ry

     total magnetization       =    93.10 Bohr mag/cell
     absolute magnetization    =    97.65 Bohr mag/cell

     iteration #  8     ecut=    60.00 Ry     beta= 0.20
     Davidson diagonalization with overlap
     ethr =  1.22E-04,  avg # of iterations =  1.0

     negative rho (up, down):  0.000E+00 4.081E-03

     Adding external electric field

     Computed dipole along edir(3) : 
        Dipole                1.1732 Ry au,          2.9819 Debye
        Dipole field          0.0020 Ry au, 

        Potential amp.       -0.1418 Ry
        Total length         35.8658 bohr


     Adding external electric field

     Computed dipole along edir(3) : 
        Dipole                1.1732 Ry au,          2.9819 Debye
        Dipole field          0.0020 Ry au, 

        Potential amp.       -0.1418 Ry
        Total length         35.8658 bohr


     total cpu time spent up to now is      754.9 secs

     total energy              =  -11852.66922725 Ry
     estimated scf accuracy    <       0.61634757 Ry

     total magnetization       =    92.88 Bohr mag/cell
     absolute magnetization    =    97.34 Bohr mag/cell

     iteration #  9     ecut=    60.00 Ry     beta= 0.20
     Davidson diagonalization with overlap
     ethr =  1.07E-04,  avg # of iterations =  2.0

     negative rho (up, down):  0.000E+00 3.764E-03

     Adding external electric field

     Computed dipole along edir(3) : 
        Dipole                1.2626 Ry au,          3.2092 Debye
        Dipole field          0.0021 Ry au, 

        Potential amp.       -0.1526 Ry
        Total length         35.8658 bohr


     Adding external electric field

     Computed dipole along edir(3) : 
        Dipole                1.2626 Ry au,          3.2092 Debye
        Dipole field          0.0021 Ry au, 

        Potential amp.       -0.1526 Ry
        Total length         35.8658 bohr


     total cpu time spent up to now is      836.3 secs

     total energy              =  -11852.68002946 Ry
     estimated scf accuracy    <       0.22525302 Ry

     total magnetization       =    92.10 Bohr mag/cell
     absolute magnetization    =    96.30 Bohr mag/cell

     iteration # 10     ecut=    60.00 Ry     beta= 0.20
     Davidson diagonalization with overlap
     c_bands:  2 eigenvalues not converged
     c_bands:  1 eigenvalues not converged
     ethr =  3.91E-05,  avg # of iterations =  3.8

     negative rho (up, down):  0.000E+00 3.565E-03

     Adding external electric field

     Computed dipole along edir(3) : 
        Dipole                1.4337 Ry au,          3.6440 Debye
        Dipole field          0.0024 Ry au, 

        Potential amp.       -0.1732 Ry
        Total length         35.8658 bohr


     Adding external electric field

     Computed dipole along edir(3) : 
        Dipole                1.4337 Ry au,          3.6440 Debye
        Dipole field          0.0024 Ry au, 

        Potential amp.       -0.1732 Ry
        Total length         35.8658 bohr


     total cpu time spent up to now is      921.9 secs

     total energy              =  -11852.66611886 Ry
     estimated scf accuracy    <       0.18575042 Ry

     total magnetization       =    91.77 Bohr mag/cell
     absolute magnetization    =    95.86 Bohr mag/cell

     iteration # 11     ecut=    60.00 Ry     beta= 0.20
     Davidson diagonalization with overlap
     c_bands:  2 eigenvalues not converged
     c_bands:  2 eigenvalues not converged
     ethr =  3.22E-05,  avg # of iterations =  4.0

     negative rho (up, down):  0.000E+00 3.488E-03

     Adding external electric field

     Computed dipole along edir(3) : 
        Dipole                1.5289 Ry au,          3.8860 Debye
        Dipole field          0.0026 Ry au, 

        Potential amp.       -0.1847 Ry
        Total length         35.8658 bohr


     Adding external electric field

     Computed dipole along edir(3) : 
        Dipole                1.5289 Ry au,          3.8860 Debye
        Dipole field          0.0026 Ry au, 

        Potential amp.       -0.1847 Ry
        Total length         35.8658 bohr


     total cpu time spent up to now is     1007.1 secs

     total energy              =  -11852.66166739 Ry
     estimated scf accuracy    <       0.12675434 Ry

     total magnetization       =    91.00 Bohr mag/cell
     absolute magnetization    =    95.00 Bohr mag/cell

     iteration # 12     ecut=    60.00 Ry     beta= 0.20
     Davidson diagonalization with overlap
     ethr =  2.20E-05,  avg # of iterations =  3.3

     negative rho (up, down):  0.000E+00 3.071E-03

     Adding external electric field

     Computed dipole along edir(3) : 
        Dipole                1.5457 Ry au,          3.9288 Debye
        Dipole field          0.0026 Ry au, 

        Potential amp.       -0.1868 Ry
        Total length         35.8658 bohr


     Adding external electric field

     Computed dipole along edir(3) : 
        Dipole                1.5457 Ry au,          3.9288 Debye
        Dipole field          0.0026 Ry au, 

        Potential amp.       -0.1868 Ry
        Total length         35.8658 bohr


     total cpu time spent up to now is     1092.2 secs

     total energy              =  -11852.66048068 Ry
     estimated scf accuracy    <       0.08511126 Ry

     total magnetization       =    91.18 Bohr mag/cell
     absolute magnetization    =    95.01 Bohr mag/cell

     iteration # 13     ecut=    60.00 Ry     beta= 0.20
     Davidson diagonalization with overlap
     ethr =  1.48E-05,  avg # of iterations =  1.8

     negative rho (up, down):  0.000E+00 3.295E-03

     Adding external electric field

     Computed dipole along edir(3) : 
        Dipole                1.3844 Ry au,          3.5187 Debye
        Dipole field          0.0023 Ry au, 

        Potential amp.       -0.1673 Ry
        Total length         35.8658 bohr


     Adding external electric field

     Computed dipole along edir(3) : 
        Dipole                1.3844 Ry au,          3.5187 Debye
        Dipole field          0.0023 Ry au, 

        Potential amp.       -0.1673 Ry
        Total length         35.8658 bohr


     total cpu time spent up to now is     1175.1 secs

     total energy              =  -11852.66233103 Ry
     estimated scf accuracy    <       0.07253179 Ry

     total magnetization       =    91.21 Bohr mag/cell
     absolute magnetization    =    94.96 Bohr mag/cell

     iteration # 14     ecut=    60.00 Ry     beta= 0.20
     Davidson diagonalization with overlap
     ethr =  1.26E-05,  avg # of iterations =  1.4

     negative rho (up, down):  0.000E+00 3.407E-03

     Adding external electric field

     Computed dipole along edir(3) : 
        Dipole                1.2548 Ry au,          3.1894 Debye
        Dipole field          0.0021 Ry au, 

        Potential amp.       -0.1516 Ry
        Total length         35.8658 bohr


     Adding external electric field

     Computed dipole along edir(3) : 
        Dipole                1.2548 Ry au,          3.1894 Debye
        Dipole field          0.0021 Ry au, 

        Potential amp.       -0.1516 Ry
        Total length         35.8658 bohr


     total cpu time spent up to now is     1252.8 secs

     total energy              =  -11852.66165857 Ry
     estimated scf accuracy    <       0.06433513 Ry

     total magnetization       =    91.59 Bohr mag/cell
     absolute magnetization    =    95.32 Bohr mag/cell

     iteration # 15     ecut=    60.00 Ry     beta= 0.20
     Davidson diagonalization with overlap
     ethr =  1.12E-05,  avg # of iterations =  1.0

     negative rho (up, down):  0.000E+00 3.473E-03

     Adding external electric field

     Computed dipole along edir(3) : 
        Dipole                1.3116 Ry au,          3.3336 Debye
        Dipole field          0.0022 Ry au, 

        Potential amp.       -0.1585 Ry
        Total length         35.8658 bohr


     Adding external electric field

     Computed dipole along edir(3) : 
        Dipole                1.3116 Ry au,          3.3336 Debye
        Dipole field          0.0022 Ry au, 

        Potential amp.       -0.1585 Ry
        Total length         35.8658 bohr


     total cpu time spent up to now is     1327.9 secs

     total energy              =  -11852.66449298 Ry
     estimated scf accuracy    <       0.07484412 Ry

     total magnetization       =    91.84 Bohr mag/cell
     absolute magnetization    =    95.56 Bohr mag/cell

     iteration # 16     ecut=    60.00 Ry     beta= 0.20
     Davidson diagonalization with overlap
     ethr =  1.12E-05,  avg # of iterations =  1.0

     negative rho (up, down):  0.000E+00 3.590E-03

     Adding external electric field

     Computed dipole along edir(3) : 
        Dipole                1.0406 Ry au,          2.6449 Debye
        Dipole field          0.0018 Ry au, 

        Potential amp.       -0.1257 Ry
        Total length         35.8658 bohr


     Adding external electric field

     Computed dipole along edir(3) : 
        Dipole                1.0406 Ry au,          2.6449 Debye
        Dipole field          0.0018 Ry au, 

        Potential amp.       -0.1257 Ry
        Total length         35.8658 bohr


     total cpu time spent up to now is     1402.7 secs

     total energy              =  -11852.65956198 Ry
     estimated scf accuracy    <       0.06814595 Ry

     total magnetization       =    91.82 Bohr mag/cell
     absolute magnetization    =    95.56 Bohr mag/cell

     iteration # 17     ecut=    60.00 Ry     beta= 0.20
     Davidson diagonalization with overlap
     ethr =  1.12E-05,  avg # of iterations =  1.0

     negative rho (up, down):  6.582E-09 3.441E-03

     Adding external electric field

     Computed dipole along edir(3) : 
        Dipole                0.4851 Ry au,          1.2330 Debye
        Dipole field          0.0008 Ry au, 

        Potential amp.       -0.0586 Ry
        Total length         35.8658 bohr


     Adding external electric field

     Computed dipole along edir(3) : 
        Dipole                0.4851 Ry au,          1.2330 Debye
        Dipole field          0.0008 Ry au, 

        Potential amp.       -0.0586 Ry
        Total length         35.8658 bohr


     total cpu time spent up to now is     1477.8 secs

     total energy              =  -11852.64500370 Ry
     estimated scf accuracy    <       0.06371928 Ry

     total magnetization       =    92.04 Bohr mag/cell
     absolute magnetization    =    95.80 Bohr mag/cell

     iteration # 18     ecut=    60.00 Ry     beta= 0.20
     Davidson diagonalization with overlap
     ethr =  1.11E-05,  avg # of iterations =  2.0

     negative rho (up, down):  1.622E-08 3.510E-03

     Adding external electric field

     Computed dipole along edir(3) : 
        Dipole                0.2232 Ry au,          0.5672 Debye
        Dipole field          0.0004 Ry au, 

        Potential amp.       -0.0270 Ry
        Total length         35.8658 bohr


     Adding external electric field

     Computed dipole along edir(3) : 
        Dipole                0.2232 Ry au,          0.5672 Debye
        Dipole field          0.0004 Ry au, 

        Potential amp.       -0.0270 Ry
        Total length         35.8658 bohr


     total cpu time spent up to now is     1561.7 secs

     total energy              =  -11852.64426409 Ry
     estimated scf accuracy    <       0.06353215 Ry

     total magnetization       =    91.86 Bohr mag/cell
     absolute magnetization    =    95.66 Bohr mag/cell

     iteration # 19     ecut=    60.00 Ry     beta= 0.20
     Davidson diagonalization with overlap
     ethr =  1.10E-05,  avg # of iterations =  1.0

     negative rho (up, down):  2.713E-03 5.950E-03

     Adding external electric field

     Computed dipole along edir(3) : 
        Dipole               -0.1876 Ry au,         -0.4767 Debye
        Dipole field         -0.0003 Ry au, 

        Potential amp.        0.0227 Ry
        Total length         35.8658 bohr


     Adding external electric field

     Computed dipole along edir(3) : 
        Dipole               -0.1876 Ry au,         -0.4767 Debye
        Dipole field         -0.0003 Ry au, 

        Potential amp.        0.0227 Ry
        Total length         35.8658 bohr


     total cpu time spent up to now is     1636.5 secs

     total energy              =  -11852.64043165 Ry
     estimated scf accuracy    <       0.02287568 Ry

     total magnetization       =    91.89 Bohr mag/cell
     absolute magnetization    =    95.71 Bohr mag/cell

     iteration # 20     ecut=    60.00 Ry     beta= 0.20
     Davidson diagonalization with overlap
     ethr =  3.97E-06,  avg # of iterations =  3.8

     negative rho (up, down):  3.050E-03 6.230E-03

     Adding external electric field

     Computed dipole along edir(3) : 
        Dipole               -0.1613 Ry au,         -0.4101 Debye
        Dipole field         -0.0003 Ry au, 

        Potential amp.        0.0195 Ry
        Total length         35.8658 bohr


     Adding external electric field

     Computed dipole along edir(3) : 
        Dipole               -0.1613 Ry au,         -0.4101 Debye
        Dipole field         -0.0003 Ry au, 

        Potential amp.        0.0195 Ry
        Total length         35.8658 bohr


     total cpu time spent up to now is     1728.6 secs

     total energy              =  -11852.64119419 Ry
     estimated scf accuracy    <       0.00877351 Ry

     total magnetization       =    92.20 Bohr mag/cell
     absolute magnetization    =    95.99 Bohr mag/cell

     iteration # 21     ecut=    60.00 Ry     beta= 0.20
     Davidson diagonalization with overlap
     ethr =  1.52E-06,  avg # of iterations =  2.0

     negative rho (up, down):  4.764E-03 7.890E-03

     Adding external electric field

     Computed dipole along edir(3) : 
        Dipole               -0.0079 Ry au,         -0.0200 Debye
        Dipole field         -0.0000 Ry au, 

        Potential amp.        0.0009 Ry
        Total length         35.8658 bohr


     Adding external electric field

     Computed dipole along edir(3) : 
        Dipole               -0.0079 Ry au,         -0.0200 Debye
        Dipole field         -0.0000 Ry au, 

        Potential amp.        0.0009 Ry
        Total length         35.8658 bohr


     total cpu time spent up to now is     1809.6 secs

     total energy              =  -11852.64078157 Ry
     estimated scf accuracy    <       0.00967773 Ry

     total magnetization       =    92.17 Bohr mag/cell
     absolute magnetization    =    95.95 Bohr mag/cell

     iteration # 22     ecut=    60.00 Ry     beta= 0.20
     Davidson diagonalization with overlap
     c_bands:  1 eigenvalues not converged
     ethr =  1.52E-06,  avg # of iterations =  3.5

     negative rho (up, down):  4.725E-03 8.006E-03

     Adding external electric field

     Computed dipole along edir(3) : 
        Dipole               -0.0087 Ry au,         -0.0222 Debye
        Dipole field         -0.0000 Ry au, 

        Potential amp.        0.0011 Ry
        Total length         35.8658 bohr


     Adding external electric field

     Computed dipole along edir(3) : 
        Dipole               -0.0087 Ry au,         -0.0222 Debye
        Dipole field         -0.0000 Ry au, 

        Potential amp.        0.0011 Ry
        Total length         35.8658 bohr


     total cpu time spent up to now is     2017.7 secs

     total energy              =  -11852.64091472 Ry
     estimated scf accuracy    <       0.00394245 Ry

     total magnetization       =    92.14 Bohr mag/cell
     absolute magnetization    =    95.90 Bohr mag/cell

     iteration # 23     ecut=    60.00 Ry     beta= 0.20
     Davidson diagonalization with overlap
     ethr =  6.84E-07,  avg # of iterations =  2.3

     negative rho (up, down):  4.309E-03 7.666E-03

     Adding external electric field

     Computed dipole along edir(3) : 
        Dipole               -0.0211 Ry au,         -0.0536 Debye
        Dipole field         -0.0000 Ry au, 

        Potential amp.        0.0025 Ry
        Total length         35.8658 bohr


     Adding external electric field

     Computed dipole along edir(3) : 
        Dipole               -0.0211 Ry au,         -0.0536 Debye
        Dipole field         -0.0000 Ry au, 

        Potential amp.        0.0025 Ry
        Total length         35.8658 bohr


     total cpu time spent up to now is     2102.0 secs

     total energy              =  -11852.64116226 Ry
     estimated scf accuracy    <       0.00157460 Ry

     total magnetization       =    92.16 Bohr mag/cell
     absolute magnetization    =    95.91 Bohr mag/cell

     iteration # 24     ecut=    60.00 Ry     beta= 0.20
     Davidson diagonalization with overlap
     ethr =  2.73E-07,  avg # of iterations =  2.7

     negative rho (up, down):  3.394E-03 6.874E-03

     Adding external electric field

     Computed dipole along edir(3) : 
        Dipole               -0.0567 Ry au,         -0.1440 Debye
        Dipole field         -0.0001 Ry au, 

        Potential amp.        0.0068 Ry
        Total length         35.8658 bohr


     Adding external electric field

     Computed dipole along edir(3) : 
        Dipole               -0.0567 Ry au,         -0.1440 Debye
        Dipole field         -0.0001 Ry au, 

        Potential amp.        0.0068 Ry
        Total length         35.8658 bohr


     total cpu time spent up to now is     2187.1 secs

     total energy              =  -11852.64134902 Ry
     estimated scf accuracy    <       0.00121525 Ry

     total magnetization       =    92.10 Bohr mag/cell
     absolute magnetization    =    95.87 Bohr mag/cell

     iteration # 25     ecut=    60.00 Ry     beta= 0.20
     Davidson diagonalization with overlap
     ethr =  2.11E-07,  avg # of iterations =  2.2

     negative rho (up, down):  1.449E-03 5.057E-03

     Adding external electric field

     Computed dipole along edir(3) : 
        Dipole               -0.0038 Ry au,         -0.0097 Debye
        Dipole field         -0.0000 Ry au, 

        Potential amp.        0.0005 Ry
        Total length         35.8658 bohr


     Adding external electric field

     Computed dipole along edir(3) : 
        Dipole               -0.0038 Ry au,         -0.0097 Debye
        Dipole field         -0.0000 Ry au, 

        Potential amp.        0.0005 Ry
        Total length         35.8658 bohr


     total cpu time spent up to now is     2271.5 secs

     total energy              =  -11852.64139346 Ry
     estimated scf accuracy    <       0.00191295 Ry

     total magnetization       =    92.07 Bohr mag/cell
     absolute magnetization    =    95.85 Bohr mag/cell

     iteration # 26     ecut=    60.00 Ry     beta= 0.20
     Davidson diagonalization with overlap
     ethr =  2.11E-07,  avg # of iterations =  1.8

     negative rho (up, down):  1.931E-03 5.527E-03

     Adding external electric field

     Computed dipole along edir(3) : 
        Dipole               -0.0241 Ry au,         -0.0612 Debye
        Dipole field         -0.0000 Ry au, 

        Potential amp.        0.0029 Ry
        Total length         35.8658 bohr


     Adding external electric field

     Computed dipole along edir(3) : 
        Dipole               -0.0241 Ry au,         -0.0612 Debye
        Dipole field         -0.0000 Ry au, 

        Potential amp.        0.0029 Ry
        Total length         35.8658 bohr


     total cpu time spent up to now is     2353.4 secs

     total energy              =  -11852.64150792 Ry
     estimated scf accuracy    <       0.00019983 Ry

     total magnetization       =    92.04 Bohr mag/cell
     absolute magnetization    =    95.82 Bohr mag/cell

     iteration # 27     ecut=    60.00 Ry     beta= 0.20
     Davidson diagonalization with overlap
     ethr =  3.47E-08,  avg # of iterations =  3.0

     negative rho (up, down):  7.986E-04 4.534E-03

     Adding external electric field

     Computed dipole along edir(3) : 
        Dipole               -0.0164 Ry au,         -0.0417 Debye
        Dipole field         -0.0000 Ry au, 

        Potential amp.        0.0020 Ry
        Total length         35.8658 bohr


     Adding external electric field

     Computed dipole along edir(3) : 
        Dipole               -0.0164 Ry au,         -0.0417 Debye
        Dipole field         -0.0000 Ry au, 

        Potential amp.        0.0020 Ry
        Total length         35.8658 bohr


     total cpu time spent up to now is     2439.2 secs

     total energy              =  -11852.64156706 Ry
     estimated scf accuracy    <       0.00011881 Ry

     total magnetization       =    92.03 Bohr mag/cell
     absolute magnetization    =    95.82 Bohr mag/cell

     iteration # 28     ecut=    60.00 Ry     beta= 0.20
     Davidson diagonalization with overlap
     ethr =  2.06E-08,  avg # of iterations =  2.3

     negative rho (up, down):  3.717E-04 4.276E-03

     Adding external electric field

     Computed dipole along edir(3) : 
        Dipole               -0.0098 Ry au,         -0.0248 Debye
        Dipole field         -0.0000 Ry au, 

        Potential amp.        0.0012 Ry
        Total length         35.8658 bohr


     Adding external electric field

     Computed dipole along edir(3) : 
        Dipole               -0.0098 Ry au,         -0.0248 Debye
        Dipole field         -0.0000 Ry au, 

        Potential amp.        0.0012 Ry
        Total length         35.8658 bohr


     total cpu time spent up to now is     2524.2 secs

     total energy              =  -11852.64159355 Ry
     estimated scf accuracy    <       0.00002935 Ry

     total magnetization       =    92.02 Bohr mag/cell
     absolute magnetization    =    95.80 Bohr mag/cell

     iteration # 29     ecut=    60.00 Ry     beta= 0.20
     Davidson diagonalization with overlap
     ethr =  5.09E-09,  avg # of iterations =  4.0

     negative rho (up, down):  1.495E-04 4.164E-03

     Adding external electric field

     Computed dipole along edir(3) : 
        Dipole               -0.0036 Ry au,         -0.0091 Debye
        Dipole field         -0.0000 Ry au, 

        Potential amp.        0.0004 Ry
        Total length         35.8658 bohr


     Adding external electric field

     Computed dipole along edir(3) : 
        Dipole               -0.0036 Ry au,         -0.0091 Debye
        Dipole field         -0.0000 Ry au, 

        Potential amp.        0.0004 Ry
        Total length         35.8658 bohr


     total cpu time spent up to now is     2615.5 secs

     total energy              =  -11852.64160173 Ry
     estimated scf accuracy    <       0.00001739 Ry

     total magnetization       =    92.01 Bohr mag/cell
     absolute magnetization    =    95.80 Bohr mag/cell

     iteration # 30     ecut=    60.00 Ry     beta= 0.20
     Davidson diagonalization with overlap
     ethr =  3.02E-09,  avg # of iterations =  2.0

     negative rho (up, down):  5.976E-05 4.088E-03

     Adding external electric field

     Computed dipole along edir(3) : 
        Dipole                0.0008 Ry au,          0.0020 Debye
        Dipole field          0.0000 Ry au, 

        Potential amp.       -0.0001 Ry
        Total length         35.8658 bohr


     Adding external electric field

     Computed dipole along edir(3) : 
        Dipole                0.0008 Ry au,          0.0020 Debye
        Dipole field          0.0000 Ry au, 

        Potential amp.       -0.0001 Ry
        Total length         35.8658 bohr


     total cpu time spent up to now is     2699.1 secs

     total energy              =  -11852.64160450 Ry
     estimated scf accuracy    <       0.00000652 Ry

     total magnetization       =    92.01 Bohr mag/cell
     absolute magnetization    =    95.80 Bohr mag/cell

     iteration # 31     ecut=    60.00 Ry     beta= 0.20
     Davidson diagonalization with overlap
     ethr =  1.13E-09,  avg # of iterations =  2.8

     negative rho (up, down):  7.534E-05 4.146E-03

     Adding external electric field

     Computed dipole along edir(3) : 
        Dipole               -0.0003 Ry au,         -0.0006 Debye
        Dipole field         -0.0000 Ry au, 

        Potential amp.        0.0000 Ry
        Total length         35.8658 bohr


     Adding external electric field

     Computed dipole along edir(3) : 
        Dipole               -0.0003 Ry au,         -0.0006 Debye
        Dipole field         -0.0000 Ry au, 

        Potential amp.        0.0000 Ry
        Total length         35.8658 bohr


     total cpu time spent up to now is     2784.8 secs

     total energy              =  -11852.64160829 Ry
     estimated scf accuracy    <       0.00000203 Ry

     total magnetization       =    92.01 Bohr mag/cell
     absolute magnetization    =    95.80 Bohr mag/cell

     iteration # 32     ecut=    60.00 Ry     beta= 0.20
     Davidson diagonalization with overlap
     ethr =  3.53E-10,  avg # of iterations =  2.9

     negative rho (up, down):  8.762E-05 4.212E-03

     Adding external electric field

     Computed dipole along edir(3) : 
        Dipole                0.0012 Ry au,          0.0031 Debye
        Dipole field          0.0000 Ry au, 

        Potential amp.       -0.0001 Ry
        Total length         35.8658 bohr


     Adding external electric field

     Computed dipole along edir(3) : 
        Dipole                0.0012 Ry au,          0.0031 Debye
        Dipole field          0.0000 Ry au, 

        Potential amp.       -0.0001 Ry
        Total length         35.8658 bohr


     total cpu time spent up to now is     2871.5 secs

     total energy              =  -11852.64161356 Ry
     estimated scf accuracy    <       0.00000149 Ry

     total magnetization       =    92.01 Bohr mag/cell
     absolute magnetization    =    95.79 Bohr mag/cell

     iteration # 33     ecut=    60.00 Ry     beta= 0.20
     Davidson diagonalization with overlap
     ethr =  2.59E-10,  avg # of iterations =  3.5

     negative rho (up, down):  1.277E-04 4.259E-03

     Adding external electric field

     Computed dipole along edir(3) : 
        Dipole               -0.0002 Ry au,         -0.0005 Debye
        Dipole field         -0.0000 Ry au, 

        Potential amp.        0.0000 Ry
        Total length         35.8658 bohr


     Adding external electric field

     Computed dipole along edir(3) : 
        Dipole               -0.0002 Ry au,         -0.0005 Debye
        Dipole field         -0.0000 Ry au, 

        Potential amp.        0.0000 Ry
        Total length         35.8658 bohr


     total cpu time spent up to now is     2966.1 secs

     total energy              =  -11852.64161337 Ry
     estimated scf accuracy    <       0.00000104 Ry

     total magnetization       =    92.01 Bohr mag/cell
     absolute magnetization    =    95.79 Bohr mag/cell

     iteration # 34     ecut=    60.00 Ry     beta= 0.20
     Davidson diagonalization with overlap
     ethr =  1.81E-10,  avg # of iterations =  2.5

     negative rho (up, down):  1.213E-04 4.252E-03

     Adding external electric field

     Computed dipole along edir(3) : 
        Dipole               -0.0003 Ry au,         -0.0008 Debye
        Dipole field         -0.0000 Ry au, 

        Potential amp.        0.0000 Ry
        Total length         35.8658 bohr


     Adding external electric field

     Computed dipole along edir(3) : 
        Dipole               -0.0003 Ry au,         -0.0008 Debye
        Dipole field         -0.0000 Ry au, 

        Potential amp.        0.0000 Ry
        Total length         35.8658 bohr


     total cpu time spent up to now is     3054.3 secs

     total energy              =  -11852.64161355 Ry
     estimated scf accuracy    <       0.00000015 Ry

     total magnetization       =    92.01 Bohr mag/cell
     absolute magnetization    =    95.79 Bohr mag/cell

     iteration # 35     ecut=    60.00 Ry     beta= 0.20
     Davidson diagonalization with overlap
     ethr =  2.68E-11,  avg # of iterations =  6.3

     negative rho (up, down):  1.112E-04 4.239E-03

     Adding external electric field

     Computed dipole along edir(3) : 
        Dipole                0.0003 Ry au,          0.0007 Debye
        Dipole field          0.0000 Ry au, 

        Potential amp.       -0.0000 Ry
        Total length         35.8658 bohr


     Adding external electric field

     Computed dipole along edir(3) : 
        Dipole                0.0003 Ry au,          0.0007 Debye
        Dipole field          0.0000 Ry au, 

        Potential amp.       -0.0000 Ry
        Total length         35.8658 bohr


     total cpu time spent up to now is     3160.4 secs

     total energy              =  -11852.64161375 Ry
     estimated scf accuracy    <       0.00000015 Ry

     total magnetization       =    92.01 Bohr mag/cell
     absolute magnetization    =    95.79 Bohr mag/cell

     iteration # 36     ecut=    60.00 Ry     beta= 0.20
     Davidson diagonalization with overlap
     ethr =  2.54E-11,  avg # of iterations =  2.5

     negative rho (up, down):  1.156E-04 4.245E-03

     Adding external electric field

     Computed dipole along edir(3) : 
        Dipole               -0.0010 Ry au,         -0.0026 Debye
        Dipole field         -0.0000 Ry au, 

        Potential amp.        0.0001 Ry
        Total length         35.8658 bohr


     Adding external electric field

     Computed dipole along edir(3) : 
        Dipole               -0.0010 Ry au,         -0.0026 Debye
        Dipole field         -0.0000 Ry au, 

        Potential amp.        0.0001 Ry
        Total length         35.8658 bohr


     Magnetic moment per site  (integrated on atomic sphere of radius R)
     atom   1 (R=0.119)  charge= 14.3528  magn=  2.6849
     atom   2 (R=0.119)  charge= 14.3528  magn=  2.6849
     atom   3 (R=0.119)  charge= 14.3528  magn=  2.6849
     atom   4 (R=0.119)  charge= 14.3528  magn=  2.6849
     atom   5 (R=0.119)  charge= 14.3528  magn=  2.6849
     atom   6 (R=0.119)  charge= 14.3528  magn=  2.6849
     atom   7 (R=0.119)  charge= 14.3527  magn=  2.6849
     atom   8 (R=0.119)  charge= 14.3527  magn=  2.6849
     atom   9 (R=0.119)  charge= 14.3527  magn=  2.6849
     atom  10 (R=0.119)  charge= 14.4289  magn=  2.4332
     atom  11 (R=0.119)  charge= 14.4289  magn=  2.4332
     atom  12 (R=0.119)  charge= 14.4289  magn=  2.4332
     atom  13 (R=0.119)  charge= 14.4292  magn=  2.4333
     atom  14 (R=0.119)  charge= 14.4292  magn=  2.4333
     atom  15 (R=0.119)  charge= 14.4292  magn=  2.4333
     atom  16 (R=0.119)  charge= 14.4292  magn=  2.4333
     atom  17 (R=0.119)  charge= 14.4292  magn=  2.4333
     atom  18 (R=0.119)  charge= 14.4292  magn=  2.4333
     atom  19 (R=0.119)  charge= 14.4292  magn=  2.4333
     atom  20 (R=0.119)  charge= 14.4292  magn=  2.4333
     atom  21 (R=0.119)  charge= 14.4292  magn=  2.4333
     atom  22 (R=0.119)  charge= 14.4292  magn=  2.4333
     atom  23 (R=0.119)  charge= 14.4292  magn=  2.4333
     atom  24 (R=0.119)  charge= 14.4292  magn=  2.4333
     atom  25 (R=0.119)  charge= 14.4289  magn=  2.4332
     atom  26 (R=0.119)  charge= 14.4289  magn=  2.4333
     atom  27 (R=0.119)  charge= 14.4289  magn=  2.4333
     atom  28 (R=0.119)  charge= 14.3527  magn=  2.6848
     atom  29 (R=0.119)  charge= 14.3527  magn=  2.6848
     atom  30 (R=0.119)  charge= 14.3527  magn=  2.6848
     atom  31 (R=0.119)  charge= 14.3528  magn=  2.6848
     atom  32 (R=0.119)  charge= 14.3528  magn=  2.6848
     atom  33 (R=0.119)  charge= 14.3528  magn=  2.6848
     atom  34 (R=0.119)  charge= 14.3528  magn=  2.6848
     atom  35 (R=0.119)  charge= 14.3528  magn=  2.6848
     atom  36 (R=0.119)  charge= 14.3528  magn=  2.6848

     total cpu time spent up to now is     3245.0 secs

     End of self-consistent calculation

 ------ SPIN UP ------------


          k = 0.0000 0.0000 0.0000 ( 58679 PWs)   bands (ev):

   -84.2402 -84.2399 -84.2138 -84.2138 -84.2138 -84.2138 -84.2137 -84.2137
   -84.2137 -84.2137 -84.1961 -84.1961 -84.1959 -84.1958 -84.1917 -84.1917
   -84.1917 -84.1917 -84.0991 -84.0673 -84.0672 -84.0672 -84.0672 -84.0662
   -84.0530 -84.0530 -84.0506 -84.0506 -84.0506 -84.0506 -84.0425 -84.0424
   -84.0323 -84.0323 -84.0264 -84.0263 -50.4404 -50.4262 -50.4062 -50.4062
   -50.4062 -50.4062 -50.4003 -50.4003 -50.4003 -50.4003 -50.3908 -50.3908
   -50.3837 -50.3837 -50.3830 -50.3830 -50.3776 -50.3776 -50.2899 -50.2899
   -50.2899 -50.2899 -50.2825 -50.2824 -50.2813 -50.2813 -50.2785 -50.2785
   -50.2771 -50.2771 -50.2768 -50.2768 -50.2767 -50.2767 -50.2611 -50.2611
   -50.2464 -50.2464 -50.2058 -50.2058 -50.2041 -50.2041 -50.1984 -50.1984
   -50.1978 -50.1978 -50.1884 -50.1884 -50.1884 -50.1884 -50.1764 -50.1764
   -50.1764 -50.1764 -50.1757 -50.1650 -50.1649 -50.1620 -50.1620 -50.1538
   -50.1538 -50.1337 -50.1337 -50.1277 -50.1277 -50.1070 -50.1070 -50.1033
   -50.0988 -50.0988 -50.0988 -50.0988 -50.0988 -50.0844 -50.0844 -50.0844
   -50.0844 -50.0588 -50.0588 -50.0588 -50.0588 -50.0451 -50.0451 -50.0427
   -50.0426 -50.0378 -50.0378 -50.0246 -50.0246 -50.0246 -50.0246 -50.0113
   -50.0113 -50.0096 -50.0081 -49.9959 -49.9959 -49.9664 -49.9664 -49.9664
   -49.9664 -49.9590 -49.9590 -49.9590 -49.9590 -49.9529 -49.9528 -49.9512
    -3.9354  -2.7437  -1.3634  -1.3118  -1.3118  -1.3118  -1.3118  -0.8765
    -0.8764  -0.8552  -0.7994  -0.7994  -0.7994  -0.7994  -0.3071  -0.3071
    -0.1851  -0.1851  -0.1709  -0.1709  -0.1709  -0.1708  -0.1315  -0.1314
     0.0288   0.0288   0.2366   0.2366   0.2518   0.2518   0.2577   0.2577
     0.2577   0.2577   0.3016   0.3016   0.5024   0.5024   0.5153   0.5153
     0.5377   0.5377   0.5443   0.5443   0.7517   0.7805   0.7805   0.7805
     0.7805   0.8089   0.8089   0.8090   0.8090   0.8909   0.8909   0.8909
     0.8909   0.9044   0.9044   0.9608   1.0118   1.0118   1.0118   1.0118
     1.0124   1.0124   1.0399   1.0399   1.1122   1.1122   1.1428   1.1428
     1.2840   1.3242   1.3242   1.3242   1.3242   1.3876   1.3876   1.3877
     1.3877   1.4207   1.4666   1.4666   1.5467   1.5895   1.7217   1.7217
     1.7255   1.8651   1.8964   1.8964   1.9751   1.9751   1.9834   1.9834
     1.9834   1.9834   1.9971   1.9971   2.0649   2.0649   2.1881   2.1881
     2.1881   2.1881   2.2515   2.2516   2.3900   2.4171   2.4171   2.5405
     2.5405   2.5989   2.5989   2.6075   2.6075   2.6075   2.6075   2.6257
     2.6859   2.6860   2.7298   2.7348   2.7348   2.7349   2.7349   2.7504
     2.7504   2.7504   2.7504   2.7618   2.7704   2.7947   2.7947   2.8064
     2.8083   2.8475   2.8475   2.8787   2.8787   2.8788   2.8788   2.9142
     2.9452   2.9452   2.9452   2.9452   2.9664   2.9664   2.9748   2.9748
     2.9748   2.9748   2.9905   2.9905   2.9955   2.9955   3.0000   3.0250
     3.0250   3.0717   3.0717   3.0841   3.0841   3.0982   3.0982   3.0982
     3.0982   3.1759   3.1923   3.1923   3.1923   3.1923   3.2443   3.2947
     3.2947   3.2947   3.2947   3.3467   3.3467   3.3654   3.3654   3.3654
     3.3654   3.3696   3.3696   3.4865   3.4865   3.5108   3.5108   3.6988
     3.6988   3.9316   4.0446   4.0446   4.2448   4.5035   4.5035   4.5035
     4.5035   5.5802

          k = 0.0000 0.2828 0.0000 ( 58504 PWs)   bands (ev):

   -84.2376 -84.2373 -84.2183 -84.2183 -84.2183 -84.2183 -84.2079 -84.2079
   -84.2079 -84.2079 -84.2076 -84.2074 -84.1930 -84.1930 -84.1929 -84.1929
   -84.1870 -84.1868 -84.0964 -84.0723 -84.0723 -84.0651 -84.0638 -84.0607
   -84.0607 -84.0543 -84.0543 -84.0457 -84.0457 -84.0439 -84.0439 -84.0434
   -84.0368 -84.0333 -84.0333 -84.0182 -50.4373 -50.4237 -50.4084 -50.4084
   -50.4039 -50.4039 -50.4036 -50.4029 -50.4029 -50.3957 -50.3957 -50.3951
   -50.3855 -50.3855 -50.3807 -50.3797 -50.3797 -50.3745 -50.3321 -50.3297
   -50.3191 -50.3191 -50.3105 -50.3105 -50.3064 -50.3064 -50.3031 -50.3030
   -50.2551 -50.2550 -50.2518 -50.2403 -50.2403 -50.2333 -50.2332 -50.2249
   -50.2199 -50.2190 -50.2188 -50.2164 -50.2164 -50.2134 -50.2134 -50.2079
   -50.2051 -50.2050 -50.1911 -50.1911 -50.1908 -50.1908 -50.1776 -50.1738
   -50.1722 -50.1605 -50.1588 -50.1588 -50.1388 -50.1388 -50.1273 -50.1221
   -50.1194 -50.1188 -50.1188 -50.1139 -50.1139 -50.1101 -50.1090 -50.1090
   -50.1090 -50.1046 -50.0936 -50.0936 -50.0917 -50.0916 -50.0868 -50.0868
   -50.0810 -50.0647 -50.0647 -50.0644 -50.0607 -50.0607 -50.0571 -50.0560
   -50.0331 -50.0331 -50.0293 -50.0292 -50.0262 -50.0261 -50.0205 -50.0137
   -50.0094 -50.0093 -50.0085 -49.9984 -49.9939 -49.9753 -49.9753 -49.9714
   -49.9714 -49.9700 -49.9700 -49.9674 -49.9664 -49.9664 -49.9646 -49.9567
    -3.7588  -2.5763  -1.7142  -1.7142  -1.5610  -1.2146  -0.9161  -0.9161
    -0.8164  -0.8164  -0.7374  -0.7094  -0.6261  -0.6162  -0.6162  -0.3874
    -0.3737  -0.1647  -0.1433  -0.1433  -0.0503  -0.0503  -0.0357  -0.0071
     0.0136   0.0136   0.0333   0.0971   0.0971   0.2390   0.2634   0.2634
     0.3146   0.3146   0.3286   0.3286   0.3348   0.3348   0.5433   0.5946
     0.5946   0.6531   0.6531   0.7811   0.7811   0.8044   0.8044   0.8083
     0.8083   0.8391   0.8391   0.8579   0.8656   0.8656   0.9100   0.9100
     0.9195   0.9308   0.9308   0.9545   0.9545   0.9694   0.9694   0.9718
     1.0343   1.0608   1.1954   1.2203   1.2203   1.2271   1.2271   1.2430
     1.2430   1.2943   1.2957   1.2957   1.3432   1.3432   1.3755   1.3796
     1.3796   1.4483   1.5286   1.5653   1.5653   1.6168   1.6306   1.6306
     1.6546   1.6546   1.6808   1.6846   1.8267   1.8351   1.8429   1.8521
     1.8521   1.8591   1.8591   1.8916   1.9533   1.9533   1.9645   2.1525
     2.1525   2.1544   2.2264   2.2508   2.2545   2.2545   2.3150   2.3619
     2.4022   2.4022   2.4241   2.4903   2.4914   2.4997   2.4997   2.5007
     2.5243   2.5755   2.5841   2.5841   2.5866   2.5868   2.6043   2.6137
     2.6256   2.6256   2.6754   2.6754   2.6872   2.7354   2.7354   2.7371
     2.7371   2.7844   2.8168   2.8273   2.8273   2.8314   2.8314   2.8468
     2.8468   2.8483   2.8483   2.8763   2.8763   2.8945   2.8945   2.9287
     2.9448   2.9448   2.9520   2.9525   2.9525   2.9708   2.9708   3.0176
     3.0176   3.0264   3.0341   3.0527   3.0527   3.0878   3.0878   3.1085
     3.1085   3.1545   3.2714   3.2714   3.3828   3.3882   3.5014   3.5204
     3.5204   3.5229   3.5229   3.5976   3.6244   3.6244   3.7009   3.7009
     3.7183   3.7512   3.7539   3.7620   3.8222   3.9087   3.9087   3.9170
     3.9422   4.1314   4.1314   4.4412   4.4412   4.4604   4.8130   4.9373
     4.9373   5.3437

          k = 0.0000 0.5657 0.0000 ( 58506 PWs)   bands (ev):

   -84.2305 -84.2301 -84.2208 -84.2208 -84.2208 -84.2208 -84.2198 -84.2195
   -84.2019 -84.2018 -84.2018 -84.2018 -84.1966 -84.1966 -84.1965 -84.1965
   -84.1820 -84.1818 -84.0889 -84.0778 -84.0750 -84.0750 -84.0573 -84.0564
   -84.0564 -84.0539 -84.0539 -84.0479 -84.0479 -84.0477 -84.0407 -84.0407
   -84.0382 -84.0363 -84.0363 -84.0137 -50.4291 -50.4172 -50.4169 -50.4096
   -50.4096 -50.4068 -50.4060 -50.4060 -50.3981 -50.3981 -50.3916 -50.3916
   -50.3907 -50.3907 -50.3849 -50.3849 -50.3750 -50.3691 -50.3594 -50.3564
   -50.3335 -50.3335 -50.3290 -50.3290 -50.3276 -50.3276 -50.3248 -50.3247
   -50.2776 -50.2387 -50.2387 -50.2361 -50.2340 -50.2340 -50.2315 -50.2303
   -50.2303 -50.2300 -50.2190 -50.2190 -50.2163 -50.2163 -50.1940 -50.1940
   -50.1691 -50.1681 -50.1604 -50.1604 -50.1570 -50.1570 -50.1536 -50.1498
   -50.1447 -50.1445 -50.1383 -50.1314 -50.1314 -50.1255 -50.1249 -50.1249
   -50.1208 -50.1200 -50.1200 -50.1182 -50.1150 -50.1150 -50.1026 -50.1026
   -50.1009 -50.1009 -50.0965 -50.0961 -50.0961 -50.0939 -50.0796 -50.0796
   -50.0749 -50.0719 -50.0719 -50.0650 -50.0536 -50.0529 -50.0431 -50.0431
   -50.0352 -50.0352 -50.0318 -50.0318 -50.0299 -50.0159 -50.0159 -50.0111
   -50.0077 -50.0022 -50.0022 -50.0005 -49.9972 -49.9972 -49.9946 -49.9943
   -49.9927 -49.9890 -49.9890 -49.9889 -49.9889 -49.9875 -49.9875 -49.9720
    -3.2461  -2.4601  -2.0982  -1.9340  -1.9340  -1.4015  -0.9659  -0.9659
    -0.8059  -0.5966  -0.5158  -0.5044  -0.4279  -0.3882  -0.3882  -0.3876
    -0.3876  -0.2907  -0.1594  -0.1467  -0.1467  -0.1448  -0.1127  -0.1127
    -0.0826   0.0233   0.0233   0.0818   0.1987   0.1987   0.2377   0.2377
     0.2968   0.2968   0.3318   0.3318   0.3703   0.3704   0.6734   0.6734
     0.6930   0.6930   0.7512   0.7512   0.7586   0.7586   0.7935   0.7936
     0.8069   0.8069   0.8959   0.9121   0.9121   0.9231   0.9733   0.9733
     0.9766   0.9766   0.9977   0.9977   1.0303   1.0303   1.0656   1.0752
     1.0752   1.1669   1.1796   1.1796   1.2182   1.2182   1.2272   1.2272
     1.2573   1.2573   1.3145   1.3374   1.3471   1.4234   1.4234   1.4687
     1.4782   1.4985   1.4985   1.5118   1.5579   1.5586   1.5586   1.5770
     1.5770   1.5821   1.6414   1.6637   1.6837   1.6837   1.7169   1.7416
     1.7489   1.7522   1.7522   1.7779   1.8326   1.8387   1.8387   1.9307
     1.9485   1.9592   2.0466   2.0466   2.1177   2.1282   2.1656   2.1656
     2.1826   2.2261   2.2945   2.2985   2.2985   2.3031   2.3354   2.3354
     2.3398   2.3398   2.3742   2.4201   2.4201   2.4220   2.4628   2.4630
     2.4812   2.5183   2.5183   2.5362   2.5578   2.5699   2.5699   2.6306
     2.6614   2.7213   2.7214   2.7395   2.7395   2.7448   2.7448   2.8190
     2.8191   2.8342   2.8342   2.8401   2.8401   2.8632   2.9207   2.9207
     2.9212   2.9212   2.9400   2.9400   3.0087   3.0118   3.0118   3.0128
     3.0128   3.0247   3.0547   3.0547   3.0965   3.1088   3.1088   3.1365
     3.1735   3.1735   3.3071   3.3071   3.3282   3.5532   3.6065   3.7217
     3.7217   3.7697   3.7910   3.7910   3.8107   3.8107   3.8168   3.8692
     3.8692   3.8762   3.9602   3.9971   4.1034   4.2077   4.4505   4.4505
     4.4808   4.9472   5.1756   5.1756   5.1970   5.1970   5.3744   5.8466
     6.0341   6.2575

          k = 0.2000-0.1414 0.0000 ( 58555 PWs)   bands (ev):

   -84.2387 -84.2383 -84.2207 -84.2206 -84.2136 -84.2135 -84.2116 -84.2116
   -84.2083 -84.2083 -84.2016 -84.2014 -84.1967 -84.1966 -84.1913 -84.1911
   -84.1883 -84.1882 -84.0973 -84.0763 -84.0686 -84.0651 -84.0631 -84.0592
   -84.0586 -84.0540 -84.0512 -84.0488 -84.0479 -84.0477 -84.0450 -84.0411
   -84.0402 -84.0318 -84.0260 -84.0225 -50.4377 -50.4248 -50.4105 -50.4088
   -50.4054 -50.4037 -50.4034 -50.4019 -50.3976 -50.3967 -50.3962 -50.3897
   -50.3868 -50.3849 -50.3834 -50.3799 -50.3795 -50.3750 -50.3248 -50.3175
   -50.3105 -50.3100 -50.3091 -50.3081 -50.2932 -50.2823 -50.2808 -50.2752
   -50.2708 -50.2684 -50.2596 -50.2587 -50.2560 -50.2474 -50.2384 -50.2353
   -50.2315 -50.2254 -50.2215 -50.2213 -50.2167 -50.2163 -50.2097 -50.2045
   -50.1961 -50.1909 -50.1883 -50.1881 -50.1865 -50.1865 -50.1805 -50.1784
   -50.1711 -50.1710 -50.1672 -50.1665 -50.1578 -50.1439 -50.1437 -50.1331
   -50.1288 -50.1263 -50.1248 -50.1238 -50.1193 -50.1155 -50.1092 -50.1066
   -50.1058 -50.1008 -50.1006 -50.0981 -50.0916 -50.0865 -50.0861 -50.0772
   -50.0756 -50.0699 -50.0630 -50.0592 -50.0537 -50.0535 -50.0491 -50.0487
   -50.0473 -50.0375 -50.0334 -50.0305 -50.0260 -50.0253 -50.0200 -50.0161
   -50.0142 -50.0050 -49.9974 -49.9974 -49.9954 -49.9739 -49.9739 -49.9704
   -49.9690 -49.9644 -49.9640 -49.9632 -49.9604 -49.9588 -49.9573 -49.9524
    -3.8033  -2.6181  -2.0621  -1.4428  -1.2462  -1.1712  -1.0997  -1.0361
    -0.8186  -0.7904  -0.7595  -0.6581  -0.6447  -0.6389  -0.4226  -0.2662
    -0.2247  -0.2098  -0.1914  -0.1604  -0.1064  -0.1002  -0.0585  -0.0528
    -0.0309  -0.0171   0.0210   0.1445   0.1614   0.1652   0.1660   0.2029
     0.2359   0.3424   0.3785   0.3943   0.4057   0.4390   0.4507   0.5185
     0.5887   0.6505   0.6661   0.7014   0.7095   0.7344   0.7379   0.7440
     0.7610   0.7653   0.7674   0.7812   0.7943   0.8534   0.8557   0.9005
     0.9257   0.9466   0.9681   0.9726   0.9733   0.9837   0.9964   1.0173
     1.0256   1.0327   1.0365   1.0965   1.1451   1.1584   1.1980   1.2082
     1.2716   1.2760   1.2943   1.3359   1.3731   1.3853   1.4407   1.4612
     1.4642   1.5049   1.5176   1.5461   1.5733   1.5996   1.6201   1.6265
     1.6275   1.6576   1.6645   1.7565   1.7624   1.7695   1.7723   1.8766
     1.8824   1.9435   1.9979   2.0436   2.0615   2.0847   2.2019   2.2188
     2.2265   2.2733   2.2777   2.2879   2.3828   2.4379   2.4433   2.4775
     2.4836   2.5109   2.5127   2.5143   2.5465   2.5649   2.6046   2.6143
     2.6186   2.6431   2.6455   2.6543   2.6693   2.6824   2.6831   2.6901
     2.6949   2.7026   2.7393   2.7517   2.7643   2.7730   2.7802   2.7870
     2.7895   2.8072   2.8144   2.8217   2.8287   2.8526   2.8538   2.8765
     2.8770   2.8864   2.9038   2.9163   2.9204   2.9228   2.9346   2.9443
     2.9537   2.9562   2.9608   2.9715   2.9742   2.9868   2.9881   3.0027
     3.0208   3.0518   3.0837   3.1005   3.1169   3.1508   3.1557   3.1588
     3.1745   3.1766   3.1940   3.2419   3.3140   3.3200   3.3472   3.3988
     3.3992   3.3997   3.4221   3.4304   3.4316   3.4437   3.4446   3.4832
     3.5889   3.5977   3.6073   3.6431   3.6730   3.6915   3.6956   3.7510
     3.7550   4.0355   4.0522   4.0774   4.3127   4.8281   4.8744   5.0060
     5.0332   5.0413

          k = 0.2000 0.1414 0.0000 ( 58555 PWs)   bands (ev):

   -84.2387 -84.2383 -84.2207 -84.2206 -84.2136 -84.2135 -84.2116 -84.2116
   -84.2083 -84.2083 -84.2016 -84.2014 -84.1967 -84.1966 -84.1913 -84.1911
   -84.1883 -84.1882 -84.0973 -84.0763 -84.0686 -84.0651 -84.0631 -84.0592
   -84.0586 -84.0540 -84.0512 -84.0488 -84.0479 -84.0477 -84.0450 -84.0411
   -84.0402 -84.0318 -84.0260 -84.0225 -50.4377 -50.4248 -50.4105 -50.4088
   -50.4054 -50.4037 -50.4034 -50.4019 -50.3976 -50.3967 -50.3962 -50.3897
   -50.3868 -50.3849 -50.3834 -50.3799 -50.3795 -50.3750 -50.3247 -50.3175
   -50.3105 -50.3100 -50.3091 -50.3081 -50.2932 -50.2824 -50.2808 -50.2752
   -50.2709 -50.2684 -50.2596 -50.2587 -50.2560 -50.2474 -50.2385 -50.2353
   -50.2315 -50.2254 -50.2215 -50.2213 -50.2167 -50.2163 -50.2097 -50.2045
   -50.1961 -50.1908 -50.1883 -50.1882 -50.1865 -50.1865 -50.1805 -50.1784
   -50.1711 -50.1710 -50.1672 -50.1665 -50.1578 -50.1439 -50.1437 -50.1331
   -50.1288 -50.1263 -50.1248 -50.1238 -50.1193 -50.1155 -50.1092 -50.1066
   -50.1058 -50.1008 -50.1006 -50.0981 -50.0916 -50.0865 -50.0860 -50.0772
   -50.0756 -50.0699 -50.0630 -50.0592 -50.0537 -50.0535 -50.0491 -50.0487
   -50.0473 -50.0375 -50.0334 -50.0305 -50.0260 -50.0253 -50.0200 -50.0161
   -50.0142 -50.0050 -49.9974 -49.9974 -49.9954 -49.9739 -49.9738 -49.9704
   -49.9690 -49.9644 -49.9640 -49.9632 -49.9604 -49.9588 -49.9574 -49.9525
    -3.8033  -2.6181  -2.0621  -1.4428  -1.2462  -1.1712  -1.0997  -1.0361
    -0.8186  -0.7904  -0.7595  -0.6581  -0.6447  -0.6389  -0.4226  -0.2662
    -0.2247  -0.2098  -0.1914  -0.1604  -0.1064  -0.1002  -0.0585  -0.0528
    -0.0309  -0.0171   0.0210   0.1445   0.1614   0.1652   0.1660   0.2029
     0.2359   0.3424   0.3785   0.3943   0.4057   0.4390   0.4507   0.5185
     0.5887   0.6505   0.6661   0.7014   0.7095   0.7344   0.7379   0.7440
     0.7610   0.7653   0.7674   0.7812   0.7943   0.8534   0.8557   0.9005
     0.9257   0.9466   0.9681   0.9726   0.9733   0.9837   0.9964   1.0173
     1.0256   1.0327   1.0365   1.0965   1.1451   1.1584   1.1980   1.2082
     1.2716   1.2760   1.2943   1.3360   1.3731   1.3853   1.4407   1.4612
     1.4642   1.5049   1.5176   1.5461   1.5733   1.5996   1.6201   1.6266
     1.6275   1.6576   1.6645   1.7565   1.7624   1.7695   1.7723   1.8766
     1.8824   1.9435   1.9979   2.0436   2.0615   2.0846   2.2019   2.2188
     2.2265   2.2734   2.2777   2.2879   2.3829   2.4379   2.4433   2.4775
     2.4836   2.5109   2.5127   2.5143   2.5464   2.5649   2.6046   2.6143
     2.6186   2.6432   2.6455   2.6542   2.6693   2.6824   2.6831   2.6901
     2.6949   2.7026   2.7393   2.7517   2.7643   2.7730   2.7802   2.7870
     2.7895   2.8072   2.8144   2.8217   2.8287   2.8526   2.8538   2.8765
     2.8770   2.8864   2.9038   2.9163   2.9203   2.9228   2.9346   2.9443
     2.9537   2.9562   2.9608   2.9715   2.9741   2.9869   2.9881   3.0027
     3.0208   3.0518   3.0837   3.1005   3.1169   3.1508   3.1557   3.1588
     3.1745   3.1766   3.1940   3.2419   3.3140   3.3200   3.3472   3.3987
     3.3992   3.3997   3.4221   3.4304   3.4316   3.4437   3.4446   3.4832
     3.5889   3.5978   3.6073   3.6431   3.6730   3.6915   3.6956   3.7510
     3.7550   4.0355   4.0522   4.0774   4.3127   4.8282   4.8744   5.0060
     5.0332   5.0413

          k = 0.2000 0.4243 0.0000 ( 58544 PWs)   bands (ev):

   -84.2338 -84.2335 -84.2256 -84.2254 -84.2139 -84.2138 -84.2135 -84.2132
   -84.2055 -84.2054 -84.2046 -84.2045 -84.1982 -84.1981 -84.1916 -84.1916
   -84.1843 -84.1841 -84.0923 -84.0815 -84.0710 -84.0658 -84.0607 -84.0598
   -84.0582 -84.0546 -84.0529 -84.0468 -84.0460 -84.0447 -84.0424 -84.0413
   -84.0408 -84.0403 -84.0289 -84.0162 -50.4321 -50.4202 -50.4140 -50.4138
   -50.4093 -50.4036 -50.4013 -50.4011 -50.3992 -50.3983 -50.3949 -50.3941
   -50.3907 -50.3867 -50.3849 -50.3795 -50.3770 -50.3721 -50.3463 -50.3437
   -50.3407 -50.3355 -50.3225 -50.3200 -50.3134 -50.3104 -50.3091 -50.3019
   -50.2659 -50.2565 -50.2493 -50.2389 -50.2339 -50.2327 -50.2269 -50.2240
   -50.2226 -50.2222 -50.2195 -50.2182 -50.2160 -50.2075 -50.2033 -50.2009
   -50.2001 -50.1911 -50.1884 -50.1829 -50.1766 -50.1708 -50.1606 -50.1603
   -50.1594 -50.1520 -50.1459 -50.1387 -50.1345 -50.1307 -50.1248 -50.1202
   -50.1193 -50.1177 -50.1148 -50.1146 -50.1146 -50.1113 -50.1102 -50.1053
   -50.1018 -50.0981 -50.0981 -50.0970 -50.0945 -50.0868 -50.0831 -50.0791
   -50.0747 -50.0726 -50.0703 -50.0688 -50.0610 -50.0592 -50.0503 -50.0501
   -50.0380 -50.0379 -50.0360 -50.0347 -50.0339 -50.0144 -50.0104 -50.0072
   -50.0034 -50.0034 -50.0003 -49.9995 -49.9959 -49.9942 -49.9939 -49.9906
   -49.9881 -49.9862 -49.9780 -49.9772 -49.9702 -49.9690 -49.9687 -49.9590
    -3.4577  -2.4704  -2.2952  -1.9364  -1.4255  -1.2212  -0.9852  -0.9665
    -0.7388  -0.5652  -0.5622  -0.5491  -0.5414  -0.5393  -0.4620  -0.4266
    -0.4195  -0.2193  -0.1516  -0.0976  -0.0973  -0.0922  -0.0623  -0.0535
    -0.0290  -0.0158  -0.0107   0.0777   0.0788   0.1349   0.1430   0.1630
     0.1938   0.2399   0.2443   0.4231   0.4313   0.4856   0.5171   0.6631
     0.6859   0.7042   0.7053   0.7221   0.7247   0.7317   0.7374   0.7666
     0.7905   0.8234   0.8443   0.8699   0.8861   0.8954   0.8971   0.9106
     0.9457   0.9579   0.9587   1.0015   1.0333   1.0601   1.0675   1.0775
     1.0907   1.1099   1.1261   1.1402   1.1932   1.2074   1.2097   1.2422
     1.3132   1.3248   1.3475   1.3620   1.3709   1.3939   1.4134   1.4323
     1.4558   1.4609   1.4671   1.4849   1.5152   1.5234   1.5469   1.5781
     1.5850   1.5901   1.6166   1.6340   1.6662   1.6888   1.7377   1.7887
     1.8163   1.8376   1.8518   1.8966   1.9023   1.9301   1.9495   2.0125
     2.0492   2.1053   2.1233   2.1235   2.1938   2.2002   2.2754   2.2964
     2.3206   2.3321   2.3393   2.4028   2.4070   2.4073   2.4088   2.4484
     2.4488   2.4549   2.4562   2.5568   2.5650   2.5831   2.5905   2.6000
     2.6185   2.6293   2.6355   2.6390   2.6499   2.6592   2.6824   2.6980
     2.7290   2.7324   2.7353   2.7636   2.8079   2.8111   2.8129   2.8169
     2.8245   2.8307   2.8344   2.8363   2.8450   2.8735   2.8827   2.9321
     2.9548   2.9588   2.9611   2.9696   2.9910   2.9911   2.9928   3.0205
     3.0344   3.0360   3.0365   3.0441   3.0581   3.0589   3.0682   3.1155
     3.1640   3.1836   3.2434   3.3979   3.4565   3.4779   3.5277   3.5861
     3.6271   3.6703   3.6737   3.6857   3.6894   3.7227   3.7279   3.7781
     3.7851   3.7919   3.8680   3.8725   3.9008   3.9641   4.1199   4.1808
     4.2136   4.2404   4.7748   4.9944   5.0632   5.0840   5.1796   5.4931
     5.5467   5.6100

          k = 0.2000-0.7071 0.0000 ( 58508 PWs)   bands (ev):

   -84.2273 -84.2271 -84.2249 -84.2249 -84.2246 -84.2246 -84.2146 -84.2146
   -84.2010 -84.2010 -84.2009 -84.2009 -84.1977 -84.1977 -84.1976 -84.1976
   -84.1817 -84.1816 -84.0833 -84.0829 -84.0829 -84.0667 -84.0597 -84.0535
   -84.0527 -84.0527 -84.0513 -84.0513 -84.0502 -84.0502 -84.0434 -84.0434
   -84.0377 -84.0341 -84.0341 -84.0139 -50.4220 -50.4220 -50.4156 -50.4152
   -50.4119 -50.4119 -50.4034 -50.3986 -50.3966 -50.3966 -50.3921 -50.3921
   -50.3914 -50.3914 -50.3864 -50.3864 -50.3739 -50.3691 -50.3593 -50.3563
   -50.3368 -50.3368 -50.3331 -50.3331 -50.3240 -50.3240 -50.3197 -50.3197
   -50.2773 -50.2381 -50.2378 -50.2378 -50.2372 -50.2342 -50.2337 -50.2337
   -50.2313 -50.2212 -50.2211 -50.2156 -50.2156 -50.2136 -50.2110 -50.1788
   -50.1788 -50.1612 -50.1561 -50.1561 -50.1506 -50.1506 -50.1493 -50.1493
   -50.1480 -50.1477 -50.1411 -50.1382 -50.1382 -50.1288 -50.1288 -50.1274
   -50.1274 -50.1262 -50.1190 -50.1109 -50.1109 -50.1108 -50.1075 -50.1066
   -50.1066 -50.1006 -50.1005 -50.0924 -50.0923 -50.0799 -50.0738 -50.0735
   -50.0734 -50.0647 -50.0638 -50.0638 -50.0596 -50.0596 -50.0520 -50.0520
   -50.0476 -50.0425 -50.0425 -50.0193 -50.0152 -50.0151 -50.0117 -50.0117
   -50.0061 -50.0007 -50.0007 -49.9989 -49.9989 -49.9984 -49.9980 -49.9967
   -49.9934 -49.9909 -49.9909 -49.9886 -49.9886 -49.9871 -49.9778 -49.9777
    -2.8021  -2.8021  -2.6118  -1.7020  -1.7020  -1.5175  -1.2888  -0.5383
    -0.4949  -0.4888  -0.4888  -0.4866  -0.4827  -0.3732  -0.3732  -0.3528
    -0.3527  -0.2082  -0.1857  -0.1857  -0.1802  -0.1802  -0.1727  -0.1727
    -0.1323  -0.0886   0.0235   0.0235   0.0532   0.0846   0.1681   0.1681
     0.1726   0.1726   0.3544   0.3545   0.5315   0.6569   0.6649   0.6693
     0.6693   0.6783   0.6784   0.6844   0.6961   0.6961   0.7656   0.8036
     0.8036   0.8325   0.8623   0.8829   0.9192   0.9192   0.9330   0.9330
     0.9504   0.9504   0.9546   1.0347   1.0348   1.0610   1.0747   1.0850
     1.0850   1.1203   1.1562   1.1581   1.2390   1.2390   1.3444   1.3444
     1.3807   1.3903   1.3903   1.4167   1.4167   1.4461   1.4461   1.4681
     1.4681   1.4835   1.4835   1.4938   1.5147   1.5147   1.5198   1.5198
     1.5398   1.5436   1.5607   1.5826   1.5826   1.5964   1.5964   1.5987
     1.6159   1.7426   1.7426   1.7587   1.7587   1.8936   2.0097   2.0097
     2.0210   2.0210   2.1266   2.1266   2.1973   2.1973   2.2157   2.2471
     2.2471   2.2636   2.2735   2.2735   2.3178   2.3268   2.3268   2.3502
     2.4104   2.4104   2.4182   2.4257   2.4257   2.4367   2.4910   2.4910
     2.5093   2.5093   2.5249   2.5249   2.5571   2.5571   2.5906   2.6415
     2.6473   2.6568   2.7137   2.7137   2.7484   2.7484   2.7491   2.7492
     2.7784   2.8087   2.8387   2.8452   2.8870   2.8980   2.8980   2.9463
     2.9463   2.9592   2.9592   2.9609   3.0017   3.0053   3.0156   3.0168
     3.0290   3.0354   3.0354   3.0410   3.0410   3.0664   3.0902   3.0902
     3.1330   3.1330   3.4302   3.5165   3.5165   3.5314   3.6413   3.7431
     3.7431   3.7622   3.7623   3.7763   3.7970   3.7970   3.7990   3.8043
     3.8043   3.8593   3.8594   3.9165   3.9514   4.0034   4.0278   5.0082
     5.0082   5.0899   5.2725   5.2725   5.5125   5.5260   5.5260   5.6386
     6.1564   6.1729

          k = 0.2000-0.4243 0.0000 ( 58544 PWs)   bands (ev):

   -84.2338 -84.2335 -84.2256 -84.2254 -84.2139 -84.2138 -84.2135 -84.2132
   -84.2055 -84.2054 -84.2046 -84.2045 -84.1982 -84.1981 -84.1916 -84.1916
   -84.1843 -84.1841 -84.0923 -84.0815 -84.0710 -84.0658 -84.0607 -84.0598
   -84.0582 -84.0546 -84.0529 -84.0468 -84.0460 -84.0447 -84.0424 -84.0413
   -84.0408 -84.0403 -84.0289 -84.0162 -50.4321 -50.4202 -50.4140 -50.4138
   -50.4093 -50.4036 -50.4013 -50.4011 -50.3992 -50.3983 -50.3949 -50.3941
   -50.3907 -50.3867 -50.3849 -50.3795 -50.3770 -50.3721 -50.3463 -50.3437
   -50.3407 -50.3356 -50.3225 -50.3200 -50.3134 -50.3103 -50.3091 -50.3018
   -50.2659 -50.2565 -50.2493 -50.2389 -50.2339 -50.2327 -50.2269 -50.2241
   -50.2226 -50.2222 -50.2195 -50.2182 -50.2160 -50.2075 -50.2033 -50.2009
   -50.2000 -50.1911 -50.1884 -50.1830 -50.1766 -50.1708 -50.1606 -50.1603
   -50.1594 -50.1520 -50.1459 -50.1387 -50.1345 -50.1307 -50.1248 -50.1202
   -50.1193 -50.1177 -50.1148 -50.1146 -50.1146 -50.1114 -50.1102 -50.1052
   -50.1018 -50.0981 -50.0981 -50.0970 -50.0945 -50.0868 -50.0831 -50.0791
   -50.0746 -50.0726 -50.0703 -50.0688 -50.0610 -50.0591 -50.0503 -50.0501
   -50.0380 -50.0379 -50.0360 -50.0347 -50.0339 -50.0144 -50.0104 -50.0072
   -50.0034 -50.0034 -50.0003 -49.9995 -49.9959 -49.9943 -49.9939 -49.9906
   -49.9881 -49.9862 -49.9780 -49.9772 -49.9702 -49.9690 -49.9687 -49.9590
    -3.4577  -2.4704  -2.2952  -1.9364  -1.4255  -1.2212  -0.9852  -0.9665
    -0.7389  -0.5651  -0.5622  -0.5491  -0.5414  -0.5393  -0.4620  -0.4266
    -0.4195  -0.2193  -0.1516  -0.0976  -0.0973  -0.0922  -0.0623  -0.0535
    -0.0290  -0.0158  -0.0107   0.0777   0.0788   0.1349   0.1429   0.1630
     0.1938   0.2399   0.2443   0.4231   0.4313   0.4856   0.5171   0.6631
     0.6859   0.7042   0.7053   0.7221   0.7247   0.7317   0.7374   0.7666
     0.7905   0.8234   0.8443   0.8699   0.8861   0.8954   0.8971   0.9106
     0.9457   0.9579   0.9587   1.0015   1.0333   1.0601   1.0675   1.0775
     1.0907   1.1099   1.1261   1.1402   1.1932   1.2074   1.2097   1.2422
     1.3131   1.3248   1.3475   1.3620   1.3709   1.3939   1.4134   1.4323
     1.4558   1.4609   1.4671   1.4849   1.5152   1.5234   1.5469   1.5781
     1.5850   1.5901   1.6166   1.6340   1.6662   1.6888   1.7377   1.7887
     1.8163   1.8376   1.8518   1.8966   1.9023   1.9301   1.9495   2.0125
     2.0491   2.1053   2.1233   2.1235   2.1938   2.2002   2.2754   2.2964
     2.3207   2.3320   2.3393   2.4028   2.4070   2.4073   2.4088   2.4484
     2.4488   2.4549   2.4562   2.5568   2.5649   2.5831   2.5906   2.6000
     2.6185   2.6293   2.6355   2.6390   2.6499   2.6592   2.6824   2.6980
     2.7290   2.7324   2.7354   2.7636   2.8079   2.8111   2.8129   2.8170
     2.8245   2.8307   2.8344   2.8363   2.8450   2.8735   2.8827   2.9321
     2.9548   2.9588   2.9611   2.9696   2.9910   2.9911   2.9928   3.0205
     3.0344   3.0360   3.0365   3.0441   3.0581   3.0589   3.0682   3.1155
     3.1640   3.1836   3.2434   3.3979   3.4566   3.4779   3.5277   3.5861
     3.6271   3.6703   3.6737   3.6857   3.6894   3.7227   3.7279   3.7781
     3.7851   3.7919   3.8680   3.8724   3.9008   3.9641   4.1199   4.1808
     4.2137   4.2404   4.7747   4.9943   5.0632   5.0839   5.1796   5.4931
     5.5468   5.6100

          k = 0.4000-0.2828 0.0000 ( 58555 PWs)   bands (ev):

   -84.2344 -84.2341 -84.2280 -84.2278 -84.2112 -84.2111 -84.2076 -84.2075
   -84.2069 -84.2068 -84.2053 -84.2053 -84.2023 -84.2022 -84.1881 -84.1879
   -84.1870 -84.1869 -84.0924 -84.0851 -84.0673 -84.0636 -84.0623 -84.0582
   -84.0567 -84.0531 -84.0502 -84.0495 -84.0487 -84.0478 -84.0437 -84.0434
   -84.0414 -84.0378 -84.0221 -84.0209 -50.4304 -50.4211 -50.4199 -50.4159
   -50.4020 -50.4018 -50.4011 -50.4001 -50.3983 -50.3981 -50.3961 -50.3945
   -50.3909 -50.3908 -50.3795 -50.3780 -50.3777 -50.3759 -50.3430 -50.3406
   -50.3281 -50.3279 -50.3265 -50.3264 -50.2902 -50.2841 -50.2817 -50.2815
   -50.2683 -50.2595 -50.2581 -50.2576 -50.2542 -50.2537 -50.2335 -50.2306
   -50.2289 -50.2283 -50.2224 -50.2129 -50.2104 -50.2020 -50.1977 -50.1965
   -50.1883 -50.1879 -50.1851 -50.1850 -50.1843 -50.1835 -50.1731 -50.1696
   -50.1672 -50.1663 -50.1535 -50.1329 -50.1319 -50.1316 -50.1315 -50.1310
   -50.1278 -50.1246 -50.1233 -50.1228 -50.1208 -50.1169 -50.1107 -50.1080
   -50.1043 -50.1037 -50.0987 -50.0949 -50.0934 -50.0895 -50.0826 -50.0685
   -50.0648 -50.0648 -50.0633 -50.0607 -50.0601 -50.0569 -50.0543 -50.0516
   -50.0482 -50.0476 -50.0409 -50.0356 -50.0250 -50.0130 -50.0107 -50.0085
   -50.0024 -49.9998 -49.9981 -49.9966 -49.9937 -49.9937 -49.9936 -49.9917
   -49.9911 -49.9832 -49.9717 -49.9698 -49.9629 -49.9616 -49.9556 -49.9538
    -3.4177  -2.8127  -2.2583  -1.7273  -1.4265  -1.2956  -0.9196  -0.7190
    -0.6653  -0.6260  -0.6219  -0.5637  -0.4922  -0.4862  -0.3869  -0.3867
    -0.2926  -0.2712  -0.2167  -0.1976  -0.1542  -0.1321  -0.1197  -0.1047
    -0.0916  -0.0042   0.0041   0.0277   0.0500   0.0762   0.1721   0.1782
[...]
     6.0227   6.0239   6.0241   6.0364   6.0365   6.0564   6.0565   6.0771
     6.0944   6.1548   6.1549   6.2197   6.2198   6.2431   6.3541   6.3543
     6.3581   6.3586   6.5043   6.5044   6.7446   6.7449   6.8570   7.1450
     7.1451   7.2110

          k = 0.4000 0.2828 0.0000 ( 58555 PWs)   bands (ev):

   -81.3108 -81.3018 -81.2815 -81.2781 -81.2700 -81.2669 -81.2634 -81.2627
   -81.2572 -81.2556 -81.2524 -81.2420 -81.2401 -81.2400 -81.2368 -81.2345
   -81.2155 -81.2152 -81.1571 -81.1512 -81.1441 -81.1379 -81.1336 -81.1325
   -81.1302 -81.1282 -81.1269 -81.1201 -81.1183 -81.1159 -81.1149 -81.1126
   -81.1084 -81.1080 -81.0949 -81.0943 -47.5951 -47.5729 -47.5564 -47.5561
   -47.5416 -47.5350 -47.5312 -47.5248 -47.5233 -47.5174 -47.5174 -47.5160
   -47.5049 -47.5033 -47.4943 -47.4848 -47.4737 -47.4670 -47.4594 -47.4570
   -47.4526 -47.4435 -47.4394 -47.4339 -47.4310 -47.4154 -47.4128 -47.4094
   -47.4063 -47.4039 -47.3996 -47.3974 -47.3888 -47.3865 -47.3762 -47.3726
   -47.3650 -47.3592 -47.3588 -47.3549 -47.3436 -47.3389 -47.3286 -47.3286
   -47.3281 -47.3240 -47.3205 -47.3198 -47.3196 -47.3142 -47.3135 -47.3094
   -47.3090 -47.3021 -47.2968 -47.2935 -47.2874 -47.2861 -47.2841 -47.2757
   -47.2745 -47.2619 -47.2607 -47.2589 -47.2544 -47.2516 -47.2458 -47.2404
   -47.2360 -47.2350 -47.2313 -47.2186 -47.2168 -47.2091 -47.2052 -47.2037
   -47.2026 -47.1965 -47.1918 -47.1901 -47.1893 -47.1888 -47.1856 -47.1841
   -47.1833 -47.1831 -47.1830 -47.1805 -47.1799 -47.1795 -47.1778 -47.1744
   -47.1657 -47.1656 -47.1579 -47.1577 -47.1548 -47.1522 -47.1491 -47.1483
   -47.1416 -47.1336 -47.1190 -47.1184 -47.1177 -47.1069 -47.1043 -47.1038
    -3.3051  -2.6822  -1.9790  -1.4115  -1.1869  -1.0236  -0.2490  -0.1430
    -0.0503   0.0293   0.2580   0.4990   0.5406   0.6313   0.6356   0.6998
     0.7404   1.1054   1.1563   1.1809   1.2025   1.2079   1.2477   1.3774
     1.4359   1.4618   1.4904   1.5886   1.6118   1.6243   1.7103   1.7824
     1.9254   1.9685   2.1230   2.1353   2.1494   2.1697   2.3050   2.3174
     2.4140   2.4540   2.4833   2.5001   2.5065   2.5253   2.5639   2.5676
     2.5774   2.5876   2.6628   2.6700   2.6992   2.7260   2.7317   2.7400
     2.7901   2.8496   2.8742   2.8928   2.9274   2.9501   2.9540   2.9770
     2.9925   2.9969   3.0398   3.0499   3.0696   3.1520   3.1599   3.1965
     3.2145   3.2560   3.2740   3.2778   3.3058   3.3214   3.3274   3.3606
     3.3740   3.3752   3.4166   3.4385   3.4479   3.5085   3.5318   3.5468
     3.5494   3.5867   3.6032   3.6369   3.6959   3.7043   3.7460   3.7932
     3.8303   3.8902   3.9023   3.9075   4.1382   4.1618   4.3312   4.3698
     4.3811   4.4032   4.4367   4.4592   4.5176   4.5261   4.5670   4.5995
     4.6040   4.6565   4.7106   4.7416   4.9147   4.9470   4.9548   4.9658
     4.9675   5.0518   5.0920   5.1039   5.1609   5.1613   5.2310   5.2311
     5.2859   5.2966   5.3017   5.3460   5.3574   5.4021   5.4510   5.4589
     5.4608   5.4690   5.4697   5.4806   5.4811   5.4935   5.4995   5.5085
     5.5295   5.5300   5.5458   5.5465   5.5876   5.5890   5.6137   5.6177
     5.6354   5.6729   5.6783   5.6792   5.6957   5.7090   5.7361   5.7483
     5.7612   5.8063   5.8156   5.8729   5.8957   5.9100   5.9102   5.9300
     5.9364   5.9493   5.9602   5.9934   6.0129   6.0188   6.0321   6.0350
     6.0393   6.0604   6.0635   6.0651   6.0749   6.0771   6.0854   6.1066
     6.1421   6.1916   6.2025   6.2209   6.2488   6.2721   6.3739   6.4038
     6.4437   6.5732   6.5781   6.5963   6.8318   6.8689   6.9087   7.0780
     7.1734   7.2894

          k = 0.4000-0.8485 0.0000 ( 58573 PWs)   bands (ev):

   -81.3067 -81.3030 -81.2914 -81.2707 -81.2698 -81.2654 -81.2641 -81.2614
   -81.2594 -81.2559 -81.2501 -81.2459 -81.2425 -81.2388 -81.2376 -81.2301
   -81.2214 -81.2105 -81.1555 -81.1502 -81.1422 -81.1400 -81.1371 -81.1331
   -81.1289 -81.1277 -81.1268 -81.1232 -81.1188 -81.1146 -81.1142 -81.1134
   -81.1096 -81.1035 -81.1005 -81.0899 -47.5933 -47.5775 -47.5711 -47.5708
   -47.5498 -47.5482 -47.5316 -47.5259 -47.5213 -47.5208 -47.5184 -47.5128
   -47.5087 -47.5066 -47.4991 -47.4892 -47.4678 -47.4583 -47.4578 -47.4551
   -47.4510 -47.4392 -47.4298 -47.4291 -47.4289 -47.4235 -47.4220 -47.4180
   -47.4102 -47.3906 -47.3890 -47.3879 -47.3867 -47.3838 -47.3783 -47.3763
   -47.3634 -47.3508 -47.3459 -47.3421 -47.3390 -47.3381 -47.3373 -47.3307
   -47.3302 -47.3277 -47.3246 -47.3197 -47.3195 -47.3166 -47.3105 -47.3048
   -47.3044 -47.3007 -47.2869 -47.2835 -47.2816 -47.2810 -47.2774 -47.2678
   -47.2649 -47.2611 -47.2599 -47.2558 -47.2538 -47.2507 -47.2465 -47.2429
   -47.2416 -47.2284 -47.2251 -47.2149 -47.2142 -47.2123 -47.2068 -47.1981
   -47.1967 -47.1963 -47.1960 -47.1955 -47.1949 -47.1937 -47.1902 -47.1856
   -47.1851 -47.1842 -47.1841 -47.1815 -47.1809 -47.1807 -47.1753 -47.1665
   -47.1642 -47.1639 -47.1585 -47.1563 -47.1560 -47.1544 -47.1468 -47.1466
   -47.1455 -47.1346 -47.1296 -47.1289 -47.1255 -47.1174 -47.1164 -47.1119
    -3.0082  -2.8022  -2.0112  -1.7009  -1.5174  -0.8097  -0.2020  -0.1972
     0.0212   0.1566   0.6257   0.6331   0.6624   0.6736   0.6880   0.7283
     0.7363   0.9154   0.9759   0.9851   1.1121   1.2852   1.3232   1.4223
     1.4306   1.4523   1.4573   1.4865   1.6111   1.6224   1.7161   1.7613
     1.8089   1.8262   1.9796   2.0703   2.1219   2.1436   2.3768   2.4088
     2.4177   2.4414   2.4651   2.4972   2.5202   2.5452   2.5467   2.5847
     2.6133   2.6530   2.6782   2.7541   2.7641   2.7834   2.7980   2.8042
     2.8180   2.8193   2.8662   2.8682   2.8686   2.8771   2.9309   2.9518
     3.0131   3.0296   3.0367   3.0534   3.1460   3.2090   3.2128   3.2166
     3.2335   3.2715   3.2863   3.3010   3.3157   3.3161   3.3294   3.3469
     3.3830   3.3841   3.4027   3.4353   3.4935   3.5144   3.5545   3.5857
     3.5947   3.5998   3.6160   3.6166   3.6503   3.6920   3.7170   3.7352
     3.7474   3.8340   3.8584   3.9886   3.9981   4.1019   4.2144   4.2439
     4.3055   4.3909   4.4025   4.4141   4.4424   4.5091   4.5791   4.6186
     4.6695   4.6970   4.7353   4.8264   4.8270   4.8889   4.9208   4.9456
     4.9491   4.9734   4.9744   5.0104   5.0716   5.1247   5.1348   5.1548
     5.1674   5.1704   5.1717   5.1920   5.2298   5.2880   5.2888   5.2917
     5.3144   5.3861   5.4111   5.4126   5.4191   5.4223   5.5224   5.5618
     5.5714   5.6078   5.6106   5.6163   5.6202   5.6466   5.6497   5.6823
     5.7001   5.7017   5.7236   5.7422   5.7485   5.8076   5.8138   5.8258
     5.8475   5.8534   5.8615   5.8780   5.8868   5.9032   5.9401   5.9563
     5.9633   5.9712   5.9825   5.9923   6.0052   6.0251   6.0910   6.1063
     6.1109   6.1361   6.1452   6.1578   6.1792   6.1840   6.1936   6.2134
     6.2445   6.2694   6.2867   6.2934   6.3926   6.4028   6.4731   6.6086
     6.6174   6.6916   6.7240   6.7708   6.9711   7.0601   7.0628   7.2279
     7.3230   7.3717

          k = 0.4000-0.5657 0.0000 ( 58573 PWs)   bands (ev):

   -81.3067 -81.3030 -81.2914 -81.2707 -81.2698 -81.2654 -81.2641 -81.2614
   -81.2595 -81.2559 -81.2501 -81.2459 -81.2425 -81.2388 -81.2376 -81.2301
   -81.2214 -81.2105 -81.1555 -81.1502 -81.1422 -81.1400 -81.1371 -81.1331
   -81.1289 -81.1277 -81.1268 -81.1232 -81.1188 -81.1146 -81.1142 -81.1134
   -81.1096 -81.1035 -81.1005 -81.0899 -47.5933 -47.5775 -47.5711 -47.5708
   -47.5497 -47.5482 -47.5316 -47.5259 -47.5213 -47.5208 -47.5184 -47.5128
   -47.5087 -47.5066 -47.4991 -47.4892 -47.4678 -47.4584 -47.4578 -47.4551
   -47.4510 -47.4392 -47.4298 -47.4291 -47.4289 -47.4235 -47.4220 -47.4180
   -47.4102 -47.3906 -47.3890 -47.3879 -47.3867 -47.3838 -47.3783 -47.3763
   -47.3634 -47.3508 -47.3459 -47.3421 -47.3390 -47.3381 -47.3373 -47.3307
   -47.3302 -47.3277 -47.3246 -47.3197 -47.3195 -47.3166 -47.3105 -47.3048
   -47.3044 -47.3007 -47.2869 -47.2835 -47.2816 -47.2810 -47.2775 -47.2678
   -47.2649 -47.2611 -47.2599 -47.2558 -47.2538 -47.2507 -47.2465 -47.2429
   -47.2416 -47.2284 -47.2251 -47.2149 -47.2142 -47.2123 -47.2068 -47.1981
   -47.1967 -47.1964 -47.1960 -47.1955 -47.1949 -47.1937 -47.1902 -47.1856
   -47.1851 -47.1842 -47.1841 -47.1815 -47.1809 -47.1807 -47.1753 -47.1665
   -47.1642 -47.1639 -47.1585 -47.1563 -47.1560 -47.1544 -47.1468 -47.1466
   -47.1455 -47.1346 -47.1296 -47.1289 -47.1255 -47.1173 -47.1164 -47.1119
    -3.0082  -2.8022  -2.0112  -1.7009  -1.5174  -0.8097  -0.2020  -0.1972
     0.0212   0.1566   0.6257   0.6331   0.6624   0.6736   0.6880   0.7283
     0.7363   0.9154   0.9759   0.9851   1.1121   1.2852   1.3232   1.4223
     1.4306   1.4523   1.4574   1.4865   1.6111   1.6224   1.7161   1.7613
     1.8089   1.8262   1.9796   2.0703   2.1219   2.1436   2.3768   2.4088
     2.4177   2.4414   2.4651   2.4972   2.5202   2.5452   2.5467   2.5847
     2.6133   2.6530   2.6782   2.7541   2.7641   2.7834   2.7980   2.8042
     2.8180   2.8193   2.8662   2.8682   2.8686   2.8771   2.9309   2.9518
     3.0131   3.0296   3.0367   3.0534   3.1460   3.2090   3.2128   3.2166
     3.2335   3.2715   3.2863   3.3010   3.3157   3.3161   3.3294   3.3469
     3.3830   3.3841   3.4027   3.4353   3.4935   3.5144   3.5545   3.5857
     3.5947   3.5998   3.6160   3.6166   3.6503   3.6920   3.7170   3.7352
     3.7474   3.8340   3.8584   3.9886   3.9981   4.1019   4.2144   4.2439
     4.3055   4.3909   4.4025   4.4141   4.4424   4.5091   4.5791   4.6186
     4.6695   4.6970   4.7353   4.8264   4.8270   4.8889   4.9208   4.9456
     4.9491   4.9735   4.9743   5.0104   5.0716   5.1247   5.1348   5.1548
     5.1674   5.1704   5.1716   5.1920   5.2298   5.2880   5.2888   5.2917
     5.3144   5.3861   5.4111   5.4126   5.4191   5.4223   5.5224   5.5618
     5.5714   5.6078   5.6106   5.6163   5.6202   5.6466   5.6497   5.6823
     5.7001   5.7017   5.7236   5.7422   5.7485   5.8076   5.8138   5.8258
     5.8475   5.8534   5.8615   5.8780   5.8868   5.9032   5.9401   5.9563
     5.9633   5.9712   5.9825   5.9923   6.0052   6.0251   6.0910   6.1063
     6.1109   6.1361   6.1452   6.1578   6.1792   6.1840   6.1936   6.2134
     6.2445   6.2694   6.2867   6.2934   6.3926   6.4028   6.4731   6.6086
     6.6174   6.6916   6.7240   6.7708   6.9711   7.0601   7.0628   7.2279
     7.3230   7.3717

     the Fermi energy is     3.9321 ev

!    total energy              =  -11852.65137368 Ry
     total all-electron energy =    -91639.326569 Ry
     estimated scf accuracy    <          8.2E-10 Ry
     smearing contrib. (-TS)   =       0.00697270 Ry
     internal energy E=F+TS    =  -11852.65834638 Ry

     The total energy is F=E-TS. E is the sum of the following terms:
     one-electron contribution =  -62947.82196096 Ry
     hartree contribution      =   31537.76865088 Ry
     xc contribution           =    -998.43040581 Ry
     ewald contribution        =   23536.55549579 Ry
     DFT-D3 Dispersion         =      -0.50057922 Ry
     electric field correction =       0.00000022 Ry
     one-center paw contrib.   =   -2980.22954729 Ry

     total magnetization       =    90.26 Bohr mag/cell
     absolute magnetization    =    93.82 Bohr mag/cell

     convergence has been achieved in  11 iterations

     negative rho (up, down):  1.186E-04 3.891E-03

     Forces acting on atoms (cartesian axes, Ry/au):

     atom    1 type  1   force =    -0.00005130   -0.00006657    0.01343949
     atom    2 type  1   force =    -0.00005151   -0.00006661    0.01343936
     atom    3 type  1   force =    -0.00005124   -0.00006659    0.01343947
     atom    4 type  1   force =     0.00005148    0.00006655    0.01343940
     atom    5 type  1   force =     0.00005135    0.00006658    0.01343956
     atom    6 type  1   force =     0.00005129    0.00006654    0.01343944
     atom    7 type  1   force =     0.00000005   -0.00000006    0.01338540
     atom    8 type  1   force =     0.00000003   -0.00000005    0.01338524
     atom    9 type  1   force =    -0.00000010    0.00000000    0.01338508
     atom   10 type  1   force =     0.00000046    0.00000061   -0.01345117
     atom   11 type  1   force =    -0.00000100   -0.00000003   -0.01345336
     atom   12 type  1   force =     0.00000128    0.00000056   -0.01345321
     atom   13 type  1   force =    -0.00008247   -0.00007491   -0.01340980
     atom   14 type  1   force =    -0.00008383   -0.00007405   -0.01341214
     atom   15 type  1   force =    -0.00008215   -0.00007462   -0.01341020
     atom   16 type  1   force =     0.00008334    0.00007537   -0.01341108
     atom   17 type  1   force =     0.00008263    0.00007521   -0.01341099
     atom   18 type  1   force =     0.00008358    0.00007455   -0.01341132
     atom   19 type  1   force =     0.00000831   -0.00001607   -0.00006004
     atom   20 type  1   force =     0.00000984   -0.00001359   -0.00005840
     atom   21 type  1   force =     0.00001494   -0.00001762   -0.00005666
     atom   22 type  1   force =    -0.00001253    0.00001431   -0.00005563
     atom   23 type  1   force =    -0.00001119    0.00001486   -0.00005929
     atom   24 type  1   force =    -0.00001277    0.00001713   -0.00005583
     atom   25 type  1   force =    -0.00000274   -0.00000290   -0.00010018
     atom   26 type  1   force =    -0.00000127    0.00000292   -0.00010133
     atom   27 type  1   force =     0.00000137   -0.00000261   -0.00009644
     atom   28 type  1   force =    -0.00000027   -0.00000257    0.00000593
     atom   29 type  1   force =    -0.00000320    0.00000151    0.00001114
     atom   30 type  1   force =     0.00000221    0.00000136    0.00000778
     atom   31 type  1   force =     0.00004353    0.00001940    0.00010819
     atom   32 type  1   force =     0.00003842    0.00001758    0.00010826
     atom   33 type  1   force =     0.00004267    0.00001958    0.00010888
     atom   34 type  1   force =    -0.00004179   -0.00001868    0.00010847
     atom   35 type  1   force =    -0.00003721   -0.00002019    0.00010852
     atom   36 type  1   force =    -0.00004021   -0.00001692    0.00010745

     Total force =     0.000367     Total SCF correction =     0.000166
     SCF correction compared to forces is large: reduce conv_thr to get better values
     Energy error            =      2.1E-07 Ry
     Gradient error          =      1.1E-04 Ry/Bohr

     bfgs converged in  13 scf cycles and  11 bfgs steps
     (criteria: energy <  7.3E-07 Ry, force <  7.7E-04 Ry/Bohr)

     End of BFGS Geometry Optimization

     Final energy             =  -11852.6513736789 Ry

     File ./Outputs/irontfa_newer.bfgs deleted, as requested
Begin final coordinates

ATOMIC_POSITIONS (crystal)
Fe               0.8333333333        0.3333333333        0.3556493098    0   0   0
Fe               0.1666666667        0.3333333333        0.3556493098    0   0   0
Fe               0.5000000000        0.3333333333        0.3556493098    0   0   0
Fe               0.8333333333        0.6666666667        0.3556493098    0   0   0
Fe               0.1666666667        0.6666666667        0.3556493098    0   0   0
Fe               0.5000000000        0.6666666667        0.3556493098    0   0   0
Fe               0.8333333333        0.0000000000        0.3556493098    0   0   0
Fe               0.1666666667        0.0000000000        0.3556493098    0   0   0
Fe               0.5000000000        0.0000000000        0.3556493098    0   0   0
Fe               0.0000000000        0.0000000000        0.4518831033    0   0   0
Fe               0.3333333333        0.0000000000        0.4518831033    0   0   0
Fe               0.6666666667        0.0000000000        0.4518831033    0   0   0
Fe               0.0000000000        0.3333333333        0.4518831033    0   0   0
Fe               0.3333333333        0.3333333333        0.4518831033    0   0   0
Fe               0.6666666667        0.3333333333        0.4518831033    0   0   0
Fe               0.0000000000        0.6666666667        0.4518831033    0   0   0
Fe               0.3333333333        0.6666666667        0.4518831033    0   0   0
Fe               0.6666666667        0.6666666667        0.4518831033    0   0   0
Fe               0.8333127253        0.3333138307        0.5460072917
Fe               0.1666455387        0.3333130703        0.5460070829
Fe               0.4999761261        0.3333150418        0.5460065675
Fe               0.8333551176        0.6666878738        0.5460066902
Fe               0.1666868283        0.6666884684        0.5460070110
Fe               0.5000224400        0.6666859357        0.5460066586
Fe               0.8333327271        0.0000026346        0.5460088576
Fe               0.1666675253       -0.0000008321        0.5460089933
Fe               0.4999994534        0.0000009340        0.5460079699
Fe              -0.0000025555        0.0000033427        0.6388973925
Fe               0.3333363330       -0.0000007848        0.6388959286
Fe               0.6666651197       -0.0000012521        0.6388964349
Fe              -0.0000282616        0.3332927689        0.6388800680
Fe               0.3333051044        0.3332950620        0.6388799221
Fe               0.6666346858        0.3332935386        0.6388796142
Fe               0.0000281738        0.6667077249        0.6388798157
Fe               0.3333584033        0.6667099177        0.6388797345
Fe               0.6666958673        0.6667041875        0.6388797817
End final coordinates



     Writing all to output data dir ./Outputs/irontfa_newer.save/ :
     XML data file, charge density, pseudopotentials, collected wavefunctions

     init_run     :     29.75s CPU     30.46s WALL (       1 calls)
     electrons    :  22484.54s CPU  22850.47s WALL (      13 calls)
     update_pot   :     10.87s CPU     10.99s WALL (      12 calls)
     forces       :    142.90s CPU    144.87s WALL (      13 calls)
     force_dftd3  :      1.72s CPU      1.73s WALL (      13 calls)

     Called by init_run:
     wfcinit      :     26.67s CPU     27.10s WALL (       1 calls)
     potinit      :      1.36s CPU      1.42s WALL (       1 calls)
     hinit0       :      0.99s CPU      1.11s WALL (       1 calls)

     Called by electrons:
     c_bands      :  19583.75s CPU  19896.24s WALL (     233 calls)
     sum_band     :   2566.88s CPU   2607.36s WALL (     233 calls)
     v_of_rho     :     54.82s CPU     55.92s WALL (     243 calls)
     newd         :     63.38s CPU     71.76s WALL (     243 calls)
     PAW_pot      :    163.93s CPU    164.92s WALL (     255 calls)
     mix_rho      :     67.26s CPU     68.24s WALL (     233 calls)
     energy_dftd3 :      1.00s CPU      1.00s WALL (      13 calls)

     Called by c_bands:
     init_us_2    :    117.38s CPU    118.61s WALL (   12792 calls)
     init_us_2:cp :    117.32s CPU    118.59s WALL (   12792 calls)
     cegterg      :  19097.76s CPU  19404.77s WALL (    6058 calls)

     Called by *egterg:
     cdiaghg      :   3923.92s CPU   3946.64s WALL (   23473 calls)
     h_psi        :   9560.46s CPU   9704.97s WALL (   23889 calls)
     s_psi        :    952.83s CPU    959.69s WALL (   23889 calls)
     g_psi        :     35.07s CPU     35.54s WALL (   17805 calls)

     Called by h_psi:
     h_psi:calbec :   1045.59s CPU   1054.97s WALL (   23889 calls)
     vloc_psi     :   7495.00s CPU   7583.54s WALL (   23889 calls)
     add_vuspsi   :    956.98s CPU    964.66s WALL (   23889 calls)

     General routines
     calbec       :   1592.94s CPU   1606.88s WALL (   31611 calls)
     fft          :     41.97s CPU     42.97s WALL (    6262 calls)
     ffts         :     28.68s CPU     29.15s WALL (   27419 calls)
     fftw         :   6966.11s CPU   7046.38s WALL (11872508 calls)
     interpolate  :      3.63s CPU      3.71s WALL (     486 calls)

     Parallel routines

     PWSCF        :      6h18m CPU      6h24m WALL


   This run was terminated on:   9:30:42  28Apr2026            

=------------------------------------------------------------------------------=
   JOB DONE.
=------------------------------------------------------------------------------=
