
     Program PWSCF v.7.3 starts on 27Apr2026 at  1:18:40 

     This program is part of the open-source Quantum ESPRESSO suite
     for quantum simulation of materials; please cite
         "P. Giannozzi et al., J. Phys.:Condens. Matter 21 395502 (2009);
         "P. Giannozzi et al., J. Phys.:Condens. Matter 29 465901 (2017);
         "P. Giannozzi et al., J. Chem. Phys. 152 154105 (2020);
          URL http://www.quantum-espresso.org", 
     in publications or presentations arising from this work. More details at
     http://www.quantum-espresso.org/quote

     Parallel version (MPI), running on    24 processors

     MPI processes distributed on     1 nodes
     142601 MiB available memory on the printing compute node when the environment starts

     Reading input from FE_with_TFAnew.in

     Current dimensions of program PWSCF are:
     Max number of different atomic species (ntypx) = 10
     Max number of k-points (npk) =  40000
     Max angular momentum in pseudopotentials (lmaxx) =  4
     Presently no symmetry can be used with electric field

     Presently stress not available with electric field and gates

     Message from routine iosys:
     pot_extrapolation='second_order' not available, using 'atomic'
     Message from routine iosys:
     wfc_extrapolation='second_order' not available, using 'atomic'
     file Fe.UPF: wavefunction(s)  3P 3D renormalized
     file C.UPF: wavefunction(s)  2S 2P renormalized
     file O.UPF: wavefunction(s)  2S 2P renormalized
     file F.UPF: wavefunction(s)  2S 2P renormalized

     IMPORTANT: XC functional enforced from input :
     Exchange-correlation= PBE
                           (   1   4   3   4   0   0   0)
     Any further DFT definition will be discarded
     Please, verify this is what you really want


     R & G space division:  proc/nbgrp/npool/nimage =      24
     Subspace diagonalization in iterative solution of the eigenvalue problem:
     one sub-group per band group will be used
     custom distributed-memory algorithm (size of sub-group:  4*  4 procs)


     Parallelization info
     --------------------
     sticks:   dense  smooth     PW     G-vecs:    dense   smooth      PW
     Min         298     149     40                55202    19515    2792
     Max         299     150     41                55210    19524    2803
     Sum        7153    3585    977              1324965   468413   67151

     Using Slab Decomposition



     bravais-lattice index     =            0
     lattice parameter (alat)  =      16.2705  a.u.
     unit-cell volume          =    7459.8003 (a.u.)^3
     number of atoms/cell      =           43
     number of atomic types    =            4
     number of electrons       =       617.00
     number of Kohn-Sham states=          371
     kinetic-energy cutoff     =      60.0000  Ry
     charge density cutoff     =     480.0000  Ry
     scf convergence threshold =      1.0E-07
     mixing beta               =       0.3000
     number of iterations used =            8  local-TF  mixing
     energy convergence thresh.=      7.3E-07
     force convergence thresh. =      7.7E-04
     Exchange-correlation= PBE
                           (   1   4   3   4   0   0   0)
     nstep                     =           50


     celldm(1)=  16.270542  celldm(2)=   0.000000  celldm(3)=   0.000000
     celldm(4)=   0.000000  celldm(5)=   0.000000  celldm(6)=   0.000000

     crystal axes: (cart. coord. in units of alat)
               a(1) = (   1.000000   0.000000   0.000000 )  
               a(2) = (   0.500000   0.707107   0.000000 )  
               a(3) = (   0.000000   0.000000   2.449267 )  

     reciprocal axes: (cart. coord. in units 2 pi/alat)
               b(1) = (  1.000000 -0.707107  0.000000 )  
               b(2) = (  0.000000  1.414214  0.000000 )  
               b(3) = (  0.000000  0.000000  0.408285 )  


     PseudoPot. # 1 for Fe read from file:
     ./Pseudopotentials/Fe.UPF
     MD5 check sum: d27ee10e6da873e3f1670f15abb69e09
     Pseudo is Projector augmented-wave + core cor, Zval = 16.0
     Generated using 'atomic' code by A. Dal Corso  v.7.2
     Shape of augmentation charge: PSQ
     Using radial grid of 1191 points,  6 beta functions with: 
                l(1) =   0
                l(2) =   0
                l(3) =   1
                l(4) =   1
                l(5) =   2
                l(6) =   2
     Q(r) pseudized with 0 coefficients 


     PseudoPot. # 2 for C  read from file:
     ./Pseudopotentials/C.UPF
     MD5 check sum: 0dcd7e2f47656ebc741e5a19a8c99607
     Pseudo is Projector augmented-wave + core cor, Zval =  4.0
     Generated using 'atomic' code by A. Dal Corso  v.7.2
     Shape of augmentation charge: PSQ
     Using radial grid of 1073 points,  4 beta functions with: 
                l(1) =   0
                l(2) =   0
                l(3) =   1
                l(4) =   1
     Q(r) pseudized with 0 coefficients 


     PseudoPot. # 3 for O  read from file:
     ./Pseudopotentials/O.UPF
     MD5 check sum: c2b90f53c2e0374da637a288a3f2c0d1
     Pseudo is Projector augmented-wave + core cor, Zval =  6.0
     Generated using 'atomic' code by A. Dal Corso  v.7.2
     Shape of augmentation charge: PSQ
     Using radial grid of 1095 points,  4 beta functions with: 
                l(1) =   0
                l(2) =   0
                l(3) =   1
                l(4) =   1
     Q(r) pseudized with 0 coefficients 


     PseudoPot. # 4 for F  read from file:
     ./Pseudopotentials/F.UPF
     MD5 check sum: 24f06cbbe4770390fadad187de636a74
     Pseudo is Projector augmented-wave + core cor, Zval =  7.0
     Generated using 'atomic' code by A. Dal Corso  v.7.2
     Shape of augmentation charge: PSQ
     Using radial grid of 1105 points,  4 beta functions with: 
                l(1) =   0
                l(2) =   0
                l(3) =   1
                l(4) =   1
     Q(r) pseudized with 0 coefficients 


     atomic species   valence    mass     pseudopotential
     Fe               16.00    55.84500     Fe( 1.00)
     C                 4.00    12.01060     C ( 1.00)
     O                 6.00    15.99900     O ( 1.00)
     F                 7.00    18.99800     F ( 1.00)

     Starting magnetic structure 
     atomic species   magnetization
     Fe              0.300
     C               0.000
     O               0.000
     F               0.000

     No symmetry found



   Cartesian axes

     site n.     atom                  positions (alat units)
         1        Fe     tau(   1) = (   1.0000000   0.2357023   0.8710801  )
         2        Fe     tau(   2) = (   0.3333333   0.2357023   0.8710801  )
         3        Fe     tau(   3) = (   0.6666667   0.2357023   0.8710801  )
         4        Fe     tau(   4) = (   1.1666667   0.4714045   0.8710801  )
         5        Fe     tau(   5) = (   0.5000000   0.4714045   0.8710801  )
         6        Fe     tau(   6) = (   0.8333333   0.4714045   0.8710801  )
         7        Fe     tau(   7) = (   0.8333333   0.0000000   0.8710801  )
         8        Fe     tau(   8) = (   0.1666667   0.0000000   0.8710801  )
         9        Fe     tau(   9) = (   0.5000000   0.0000000   0.8710801  )
        10        Fe     tau(  10) = (   0.0000000   0.0000000   1.1067824  )
        11        Fe     tau(  11) = (   0.3333333   0.0000000   1.1067824  )
        12        Fe     tau(  12) = (   0.6666667   0.0000000   1.1067824  )
        13        Fe     tau(  13) = (   0.1666667   0.2357023   1.1067824  )
        14        Fe     tau(  14) = (   0.5000000   0.2357023   1.1067824  )
        15        Fe     tau(  15) = (   0.8333333   0.2357023   1.1067824  )
        16        Fe     tau(  16) = (   0.3333333   0.4714045   1.1067824  )
        17        Fe     tau(  17) = (   0.6666667   0.4714045   1.1067824  )
        18        Fe     tau(  18) = (   1.0000000   0.4714045   1.1067824  )
        19        Fe     tau(  19) = (   1.0000000   0.2357023   1.3424847  )
        20        Fe     tau(  20) = (   0.3333333   0.2357023   1.3424847  )
        21        Fe     tau(  21) = (   0.6666667   0.2357023   1.3424847  )
        22        Fe     tau(  22) = (   1.1666667   0.4714045   1.3424847  )
        23        Fe     tau(  23) = (   0.5000000   0.4714045   1.3424847  )
        24        Fe     tau(  24) = (   0.8333333   0.4714045   1.3424847  )
        25        Fe     tau(  25) = (   0.8333333   0.0000000   1.3424847  )
        26        Fe     tau(  26) = (   0.1666667   0.0000000   1.3424847  )
        27        Fe     tau(  27) = (   0.5000000   0.0000000   1.3424847  )
        28        Fe     tau(  28) = (   0.0000000   0.0000000   1.5781869  )
        29        Fe     tau(  29) = (   0.3333333   0.0000000   1.5781869  )
        30        Fe     tau(  30) = (   0.6666667   0.0000000   1.5781869  )
        31        Fe     tau(  31) = (   0.1666667   0.2357023   1.5781869  )
        32        Fe     tau(  32) = (   0.5000000   0.2357023   1.5781869  )
        33        Fe     tau(  33) = (   0.8333333   0.2357023   1.5781869  )
        34        Fe     tau(  34) = (   0.3333333   0.4714045   1.5781869  )
        35        Fe     tau(  35) = (   0.6666667   0.4714045   1.5781869  )
        36        Fe     tau(  36) = (   1.0000000   0.4714045   1.5781869  )
        37        F      tau(  37) = (   0.7708825   0.0831700   1.8653649  )
        38        F      tau(  38) = (   0.5780606   0.2052376   1.9753300  )
        39        F      tau(  39) = (   0.5711151   0.1541340   1.7265146  )
        40        O      tau(  40) = (   0.6875492   0.4785591   1.7838899  )
        41        O      tau(  41) = (   0.9084319   0.3396857   1.8128098  )
        42        C      tau(  42) = (   0.7500000   0.3535534   1.8104750  )
        43        C      tau(  43) = (   0.6656447   0.2003708   1.8441221  )

     --------------------------------------------
     DFT-D3 Dispersion Correction (3-body terms):
     --------------------------------------------
       Reference C6 values for interpolation: 

         atom   Coordination number   C6
         C          0.000            98.23
         C          0.987            86.49
         C          1.998            58.72
         C          2.999            51.56
         C          3.984            36.41
         O          0.000            31.01
         O          0.993            25.63
         O          1.989            20.74
         F          0.000            19.38
         F          0.998            14.27
         Fe         0.000           982.67
         Fe         1.648           409.99
         Fe         9.138           219.01

       Values used:

         atom   Coordination number  R0_AB[au]  C6      C8
         Fe         6.737            3.252    219.01  20487.87
         Fe         6.737            3.252    219.01  20487.87
         Fe         6.737            3.252    219.01  20487.87
         Fe         6.737            3.252    219.01  20487.87
         Fe         6.737            3.252    219.01  20487.87
         Fe         6.737            3.252    219.01  20487.87
         Fe         6.737            3.252    219.01  20487.87
         Fe         6.737            3.252    219.01  20487.87
         Fe         6.737            3.252    219.01  20487.87
         Fe         9.236            3.252    219.01  20487.87
         Fe         9.236            3.252    219.01  20487.87
         Fe         9.236            3.252    219.01  20487.87
         Fe         9.236            3.252    219.01  20487.87
         Fe         9.236            3.252    219.01  20487.87
         Fe         9.236            3.252    219.01  20487.87
         Fe         9.236            3.252    219.01  20487.87
         Fe         9.236            3.252    219.01  20487.87
         Fe         9.236            3.252    219.01  20487.87
         Fe         9.238            3.252    219.01  20487.87
         Fe         9.238            3.252    219.01  20487.87
         Fe         9.242            3.252    219.01  20487.87
         Fe         9.237            3.252    219.01  20487.87
         Fe         9.238            3.252    219.01  20487.87
         Fe         9.239            3.252    219.01  20487.87
         Fe         9.238            3.252    219.01  20487.87
         Fe         9.237            3.252    219.01  20487.87
         Fe         9.239            3.252    219.01  20487.87
         Fe         6.762            3.252    219.01  20487.87
         Fe         6.814            3.252    219.01  20487.87
         Fe         7.716            3.252    219.01  20487.87
         Fe         6.752            3.252    219.01  20487.87
         Fe         7.901            3.252    219.01  20487.87
         Fe         7.897            3.252    219.01  20487.87
         Fe         6.748            3.252    219.01  20487.87
         Fe         8.309            3.252    219.01  20487.87
         Fe         6.964            3.252    219.01  20487.87
         F          1.192            2.173     14.29    244.45
         F          1.090            2.173     14.31    244.84
         F          3.077            2.173     14.27    244.15
         O          2.090            2.345     20.78    419.34
         O          1.632            2.345     21.87    441.37
         C          4.237            2.750     36.45   1054.21
         C          4.358            2.750     36.43   1053.55

         Molecular C6 ( Ry / a.u.^6 ) =    318007.38


     number of k points=    13  Marzari-Vanderbilt smearing, width (Ry)=  0.0100
                       cart. coord. in units 2pi/alat
        k(    1) = (   0.0000000   0.0000000   0.0000000), wk =   0.0400000
        k(    2) = (   0.0000000   0.2828427   0.0000000), wk =   0.0800000
        k(    3) = (   0.0000000   0.5656854   0.0000000), wk =   0.0800000
        k(    4) = (   0.2000000  -0.1414214   0.0000000), wk =   0.0800000
        k(    5) = (   0.2000000   0.1414214   0.0000000), wk =   0.0800000
        k(    6) = (   0.2000000   0.4242641   0.0000000), wk =   0.0800000
        k(    7) = (   0.2000000  -0.7071068   0.0000000), wk =   0.0800000
        k(    8) = (   0.2000000  -0.4242641   0.0000000), wk =   0.0800000
        k(    9) = (   0.4000000  -0.2828427   0.0000000), wk =   0.0800000
        k(   10) = (   0.4000000   0.0000000   0.0000000), wk =   0.0800000
        k(   11) = (   0.4000000   0.2828427   0.0000000), wk =   0.0800000
        k(   12) = (   0.4000000  -0.8485281   0.0000000), wk =   0.0800000
        k(   13) = (   0.4000000  -0.5656854   0.0000000), wk =   0.0800000

     Dense  grid:  1324965 G-vectors     FFT dimensions: ( 120, 100, 288)

     Smooth grid:   468413 G-vectors     FFT dimensions: (  81,  72, 200)

     Estimated max dynamical RAM per process >     713.10 MB

     Estimated total dynamical RAM >      16.71 GB

     Check: negative core charge=   -0.000001
     Generating pointlists ...
     new r_m :   0.0757 (alat units)  1.2323 (a.u.) for type    1
     new r_m :   0.0587 (alat units)  0.9547 (a.u.) for type    2
     new r_m :   0.0587 (alat units)  0.9547 (a.u.) for type    3
     new r_m :   0.0651 (alat units)  1.0592 (a.u.) for type    4

     Initial potential from superposition of free atoms

     starting charge     616.9842, renormalised to     617.0000

     negative rho (up, down):  5.829E-04 4.117E-04

     Adding external electric field

     Computed dipole along edir(3) : 
        Dipole                0.0015 Ry au,          0.0039 Debye
        Dipole field          0.0000 Ry au, 

        Potential amp.       -0.0002 Ry
        Total length         35.8658 bohr


     Adding external electric field

     Computed dipole along edir(3) : 
        Dipole                0.0015 Ry au,          0.0039 Debye
        Dipole field          0.0000 Ry au, 

        Potential amp.       -0.0002 Ry
        Total length         35.8658 bohr

     Starting wfcs are  388 randomized atomic wfcs
     Checking if some PAW data can be deallocated... 

     total cpu time spent up to now is       38.5 secs

     Self-consistent Calculation

     iteration #  1     ecut=    60.00 Ry     beta= 0.30
     Davidson diagonalization with overlap
     ethr =  1.00E-02,  avg # of iterations =  6.2

     negative rho (up, down):  5.586E-03 1.775E+00

     Adding external electric field

     Computed dipole along edir(3) : 
        Dipole                0.0373 Ry au,          0.0949 Debye
        Dipole field          0.0001 Ry au, 

        Potential amp.       -0.0045 Ry
        Total length         35.8658 bohr


     Adding external electric field

     Computed dipole along edir(3) : 
        Dipole                0.0373 Ry au,          0.0949 Debye
        Dipole field          0.0001 Ry au, 

        Potential amp.       -0.0045 Ry
        Total length         35.8658 bohr


     total cpu time spent up to now is      181.5 secs

     total energy              =  -12138.30880236 Ry
     estimated scf accuracy    <     202.14302060 Ry

     total magnetization       =   109.07 Bohr mag/cell
     absolute magnetization    =   137.17 Bohr mag/cell

     iteration #  2     ecut=    60.00 Ry     beta= 0.30
     Davidson diagonalization with overlap
     ethr =  1.00E-02,  avg # of iterations =  3.0

     negative rho (up, down):  4.779E-04 1.303E+00

     Adding external electric field

     Computed dipole along edir(3) : 
        Dipole                0.1206 Ry au,          0.3064 Debye
        Dipole field          0.0002 Ry au, 

        Potential amp.       -0.0146 Ry
        Total length         35.8658 bohr


     Adding external electric field

     Computed dipole along edir(3) : 
        Dipole                0.1206 Ry au,          0.3064 Debye
        Dipole field          0.0002 Ry au, 

        Potential amp.       -0.0146 Ry
        Total length         35.8658 bohr


     total cpu time spent up to now is      281.7 secs

     total energy              =  -12148.80802393 Ry
     estimated scf accuracy    <      25.48901317 Ry

     total magnetization       =   104.96 Bohr mag/cell
     absolute magnetization    =   108.67 Bohr mag/cell

     iteration #  3     ecut=    60.00 Ry     beta= 0.30
     Davidson diagonalization with overlap
     ethr =  4.13E-03,  avg # of iterations =  1.3

     negative rho (up, down):  1.768E-07 7.902E-01

     Adding external electric field

     Computed dipole along edir(3) : 
        Dipole                0.2267 Ry au,          0.5762 Debye
        Dipole field          0.0004 Ry au, 

        Potential amp.       -0.0274 Ry
        Total length         35.8658 bohr


     Adding external electric field

     Computed dipole along edir(3) : 
        Dipole                0.2267 Ry au,          0.5762 Debye
        Dipole field          0.0004 Ry au, 

        Potential amp.       -0.0274 Ry
        Total length         35.8658 bohr


     total cpu time spent up to now is      366.3 secs

     total energy              =  -12149.64591465 Ry
     estimated scf accuracy    <      14.97572765 Ry

     total magnetization       =   102.77 Bohr mag/cell
     absolute magnetization    =   106.02 Bohr mag/cell

     iteration #  4     ecut=    60.00 Ry     beta= 0.30
     Davidson diagonalization with overlap
     ethr =  2.43E-03,  avg # of iterations =  1.0

     negative rho (up, down):  1.855E-06 1.630E-02

     Adding external electric field

     Computed dipole along edir(3) : 
        Dipole                0.5601 Ry au,          1.4235 Debye
        Dipole field          0.0009 Ry au, 

        Potential amp.       -0.0677 Ry
        Total length         35.8658 bohr


     Adding external electric field

     Computed dipole along edir(3) : 
        Dipole                0.5601 Ry au,          1.4235 Debye
        Dipole field          0.0009 Ry au, 

        Potential amp.       -0.0677 Ry
        Total length         35.8658 bohr


     total cpu time spent up to now is      447.0 secs

     total energy              =  -12150.29481057 Ry
     estimated scf accuracy    <       8.57339624 Ry

     total magnetization       =   100.01 Bohr mag/cell
     absolute magnetization    =   103.67 Bohr mag/cell

     iteration #  5     ecut=    60.00 Ry     beta= 0.30
     Davidson diagonalization with overlap
     ethr =  1.39E-03,  avg # of iterations =  2.0

     negative rho (up, down):  2.681E-07 6.948E-02

     Adding external electric field

     Computed dipole along edir(3) : 
        Dipole                0.8410 Ry au,          2.1375 Debye
        Dipole field          0.0014 Ry au, 

        Potential amp.       -0.1016 Ry
        Total length         35.8658 bohr


     Adding external electric field

     Computed dipole along edir(3) : 
        Dipole                0.8410 Ry au,          2.1375 Debye
        Dipole field          0.0014 Ry au, 

        Potential amp.       -0.1016 Ry
        Total length         35.8658 bohr


     total cpu time spent up to now is      540.5 secs

     total energy              =  -12150.57620020 Ry
     estimated scf accuracy    <       1.32529420 Ry

     total magnetization       =    94.53 Bohr mag/cell
     absolute magnetization    =    99.02 Bohr mag/cell

     iteration #  6     ecut=    60.00 Ry     beta= 0.30
     Davidson diagonalization with overlap
     ethr =  2.15E-04,  avg # of iterations =  7.8

     negative rho (up, down):  0.000E+00 1.928E-02

     Adding external electric field

     Computed dipole along edir(3) : 
        Dipole                0.9523 Ry au,          2.4206 Debye
        Dipole field          0.0016 Ry au, 

        Potential amp.       -0.1151 Ry
        Total length         35.8658 bohr


     Adding external electric field

     Computed dipole along edir(3) : 
        Dipole                0.9523 Ry au,          2.4206 Debye
        Dipole field          0.0016 Ry au, 

        Potential amp.       -0.1151 Ry
        Total length         35.8658 bohr


     total cpu time spent up to now is      665.7 secs

     total energy              =  -12150.70841663 Ry
     estimated scf accuracy    <       0.70093595 Ry

     total magnetization       =    90.35 Bohr mag/cell
     absolute magnetization    =    95.24 Bohr mag/cell

     iteration #  7     ecut=    60.00 Ry     beta= 0.30
     Davidson diagonalization with overlap
     ethr =  1.14E-04,  avg # of iterations =  2.2

     negative rho (up, down):  0.000E+00 6.195E-03

     Adding external electric field

     Computed dipole along edir(3) : 
        Dipole                1.1021 Ry au,          2.8012 Debye
        Dipole field          0.0019 Ry au, 

        Potential amp.       -0.1332 Ry
        Total length         35.8658 bohr


     Adding external electric field

     Computed dipole along edir(3) : 
        Dipole                1.1021 Ry au,          2.8012 Debye
        Dipole field          0.0019 Ry au, 

        Potential amp.       -0.1332 Ry
        Total length         35.8658 bohr


     total cpu time spent up to now is      756.5 secs

     total energy              =  -12150.71729066 Ry
     estimated scf accuracy    <       0.44444354 Ry

     total magnetization       =    91.27 Bohr mag/cell
     absolute magnetization    =    95.86 Bohr mag/cell

     iteration #  8     ecut=    60.00 Ry     beta= 0.30
     Davidson diagonalization with overlap
     ethr =  7.20E-05,  avg # of iterations =  1.4

     negative rho (up, down):  0.000E+00 3.574E-03

     Adding external electric field

     Computed dipole along edir(3) : 
        Dipole                1.3258 Ry au,          3.3697 Debye
        Dipole field          0.0022 Ry au, 

        Potential amp.       -0.1602 Ry
        Total length         35.8658 bohr


     Adding external electric field

     Computed dipole along edir(3) : 
        Dipole                1.3258 Ry au,          3.3697 Debye
        Dipole field          0.0022 Ry au, 

        Potential amp.       -0.1602 Ry
        Total length         35.8658 bohr


     total cpu time spent up to now is      842.1 secs

     total energy              =  -12150.70670699 Ry
     estimated scf accuracy    <       0.28796944 Ry

     total magnetization       =    91.11 Bohr mag/cell
     absolute magnetization    =    95.52 Bohr mag/cell

     iteration #  9     ecut=    60.00 Ry     beta= 0.30
     Davidson diagonalization with overlap
     ethr =  4.67E-05,  avg # of iterations =  6.2

     negative rho (up, down):  0.000E+00 5.015E-03

     Adding external electric field

     Computed dipole along edir(3) : 
        Dipole                1.4761 Ry au,          3.7519 Debye
        Dipole field          0.0025 Ry au, 

        Potential amp.       -0.1784 Ry
        Total length         35.8658 bohr


     Adding external electric field

     Computed dipole along edir(3) : 
        Dipole                1.4761 Ry au,          3.7519 Debye
        Dipole field          0.0025 Ry au, 

        Potential amp.       -0.1784 Ry
        Total length         35.8658 bohr


     total cpu time spent up to now is      944.5 secs

     total energy              =  -12150.69134744 Ry
     estimated scf accuracy    <       0.27640173 Ry

     total magnetization       =    90.85 Bohr mag/cell
     absolute magnetization    =    95.06 Bohr mag/cell

     iteration # 10     ecut=    60.00 Ry     beta= 0.30
     Davidson diagonalization with overlap
     ethr =  4.48E-05,  avg # of iterations =  2.2

     negative rho (up, down):  0.000E+00 3.162E-03

     Adding external electric field

     Computed dipole along edir(3) : 
        Dipole                1.6579 Ry au,          4.2140 Debye
        Dipole field          0.0028 Ry au, 

        Potential amp.       -0.2003 Ry
        Total length         35.8658 bohr


     Adding external electric field

     Computed dipole along edir(3) : 
        Dipole                1.6579 Ry au,          4.2140 Debye
        Dipole field          0.0028 Ry au, 

        Potential amp.       -0.2003 Ry
        Total length         35.8658 bohr


     total cpu time spent up to now is     1032.1 secs

     total energy              =  -12150.68379244 Ry
     estimated scf accuracy    <       0.19446714 Ry

     total magnetization       =    89.93 Bohr mag/cell
     absolute magnetization    =    94.15 Bohr mag/cell

     iteration # 11     ecut=    60.00 Ry     beta= 0.30
     Davidson diagonalization with overlap
     c_bands:  1 eigenvalues not converged
     ethr =  3.15E-05,  avg # of iterations =  5.7

     negative rho (up, down):  0.000E+00 2.970E-03

     Adding external electric field

     Computed dipole along edir(3) : 
        Dipole                1.6273 Ry au,          4.1363 Debye
        Dipole field          0.0027 Ry au, 

        Potential amp.       -0.1966 Ry
        Total length         35.8658 bohr


     Adding external electric field

     Computed dipole along edir(3) : 
        Dipole                1.6273 Ry au,          4.1363 Debye
        Dipole field          0.0027 Ry au, 

        Potential amp.       -0.1966 Ry
        Total length         35.8658 bohr


     total cpu time spent up to now is     1135.1 secs

     total energy              =  -12150.68687556 Ry
     estimated scf accuracy    <       0.10346870 Ry

     total magnetization       =    90.19 Bohr mag/cell
     absolute magnetization    =    94.20 Bohr mag/cell

     iteration # 12     ecut=    60.00 Ry     beta= 0.30
     Davidson diagonalization with overlap
     c_bands:  1 eigenvalues not converged
     c_bands:  2 eigenvalues not converged
     ethr =  1.68E-05,  avg # of iterations =  4.7

     negative rho (up, down):  0.000E+00 3.002E-03

     Adding external electric field

     Computed dipole along edir(3) : 
        Dipole                1.5424 Ry au,          3.9203 Debye
        Dipole field          0.0026 Ry au, 

        Potential amp.       -0.1864 Ry
        Total length         35.8658 bohr


     Adding external electric field

     Computed dipole along edir(3) : 
        Dipole                1.5424 Ry au,          3.9203 Debye
        Dipole field          0.0026 Ry au, 

        Potential amp.       -0.1864 Ry
        Total length         35.8658 bohr


     total cpu time spent up to now is     1231.2 secs

     total energy              =  -12150.68682240 Ry
     estimated scf accuracy    <       0.06389736 Ry

     total magnetization       =    90.14 Bohr mag/cell
     absolute magnetization    =    94.08 Bohr mag/cell

     iteration # 13     ecut=    60.00 Ry     beta= 0.30
     Davidson diagonalization with overlap
     c_bands:  2 eigenvalues not converged
     ethr =  1.04E-05,  avg # of iterations =  3.1

     negative rho (up, down):  0.000E+00 3.047E-03

     Adding external electric field

     Computed dipole along edir(3) : 
        Dipole                1.4716 Ry au,          3.7404 Debye
        Dipole field          0.0025 Ry au, 

        Potential amp.       -0.1778 Ry
        Total length         35.8658 bohr


     Adding external electric field

     Computed dipole along edir(3) : 
        Dipole                1.4716 Ry au,          3.7404 Debye
        Dipole field          0.0025 Ry au, 

        Potential amp.       -0.1778 Ry
        Total length         35.8658 bohr


     total cpu time spent up to now is     1321.9 secs

     total energy              =  -12150.68680447 Ry
     estimated scf accuracy    <       0.05915377 Ry

     total magnetization       =    90.19 Bohr mag/cell
     absolute magnetization    =    94.10 Bohr mag/cell

     iteration # 14     ecut=    60.00 Ry     beta= 0.30
     Davidson diagonalization with overlap
     c_bands:  2 eigenvalues not converged
     ethr =  9.59E-06,  avg # of iterations =  1.9

     negative rho (up, down):  0.000E+00 3.064E-03

     Adding external electric field

     Computed dipole along edir(3) : 
        Dipole                1.4884 Ry au,          3.7831 Debye
        Dipole field          0.0025 Ry au, 

        Potential amp.       -0.1799 Ry
        Total length         35.8658 bohr


     Adding external electric field

     Computed dipole along edir(3) : 
        Dipole                1.4884 Ry au,          3.7831 Debye
        Dipole field          0.0025 Ry au, 

        Potential amp.       -0.1799 Ry
        Total length         35.8658 bohr


     total cpu time spent up to now is     1406.5 secs

     total energy              =  -12150.68701041 Ry
     estimated scf accuracy    <       0.06132740 Ry

     total magnetization       =    90.17 Bohr mag/cell
     absolute magnetization    =    94.10 Bohr mag/cell

     iteration # 15     ecut=    60.00 Ry     beta= 0.30
     Davidson diagonalization with overlap
     ethr =  9.59E-06,  avg # of iterations =  1.3

     negative rho (up, down):  2.464E-06 2.936E-03

     Adding external electric field

     Computed dipole along edir(3) : 
        Dipole                1.2840 Ry au,          3.2636 Debye
        Dipole field          0.0022 Ry au, 

        Potential amp.       -0.1552 Ry
        Total length         35.8658 bohr


     Adding external electric field

     Computed dipole along edir(3) : 
        Dipole                1.2840 Ry au,          3.2636 Debye
        Dipole field          0.0022 Ry au, 

        Potential amp.       -0.1552 Ry
        Total length         35.8658 bohr


     total cpu time spent up to now is     1490.3 secs

     total energy              =  -12150.67917652 Ry
     estimated scf accuracy    <       0.06581770 Ry

     total magnetization       =    90.21 Bohr mag/cell
     absolute magnetization    =    94.13 Bohr mag/cell

     iteration # 16     ecut=    60.00 Ry     beta= 0.30
     Davidson diagonalization with overlap
     ethr =  9.59E-06,  avg # of iterations =  1.7

     negative rho (up, down):  1.168E-05 2.773E-03

     Adding external electric field

     Computed dipole along edir(3) : 
        Dipole                1.0220 Ry au,          2.5978 Debye
        Dipole field          0.0017 Ry au, 

        Potential amp.       -0.1235 Ry
        Total length         35.8658 bohr


     Adding external electric field

     Computed dipole along edir(3) : 
        Dipole                1.0220 Ry au,          2.5978 Debye
        Dipole field          0.0017 Ry au, 

        Potential amp.       -0.1235 Ry
        Total length         35.8658 bohr


     total cpu time spent up to now is     1576.3 secs

     total energy              =  -12150.67391289 Ry
     estimated scf accuracy    <       0.07394115 Ry

     total magnetization       =    90.11 Bohr mag/cell
     absolute magnetization    =    94.02 Bohr mag/cell

     iteration # 17     ecut=    60.00 Ry     beta= 0.30
     Davidson diagonalization with overlap
     ethr =  9.59E-06,  avg # of iterations =  1.4

     negative rho (up, down):  1.298E-05 2.784E-03

     Adding external electric field

     Computed dipole along edir(3) : 
        Dipole                0.9223 Ry au,          2.3442 Debye
        Dipole field          0.0016 Ry au, 

        Potential amp.       -0.1114 Ry
        Total length         35.8658 bohr


     Adding external electric field

     Computed dipole along edir(3) : 
        Dipole                0.9223 Ry au,          2.3442 Debye
        Dipole field          0.0016 Ry au, 

        Potential amp.       -0.1114 Ry
        Total length         35.8658 bohr


     total cpu time spent up to now is     1660.3 secs

     total energy              =  -12150.67309740 Ry
     estimated scf accuracy    <       0.06459172 Ry

     total magnetization       =    90.10 Bohr mag/cell
     absolute magnetization    =    94.00 Bohr mag/cell

     iteration # 18     ecut=    60.00 Ry     beta= 0.30
     Davidson diagonalization with overlap
     ethr =  9.59E-06,  avg # of iterations =  1.1

     negative rho (up, down):  1.622E-05 2.849E-03

     Adding external electric field

     Computed dipole along edir(3) : 
        Dipole                0.3191 Ry au,          0.8111 Debye
        Dipole field          0.0005 Ry au, 

        Potential amp.       -0.0386 Ry
        Total length         35.8658 bohr


     Adding external electric field

     Computed dipole along edir(3) : 
        Dipole                0.3191 Ry au,          0.8111 Debye
        Dipole field          0.0005 Ry au, 

        Potential amp.       -0.0386 Ry
        Total length         35.8658 bohr


     total cpu time spent up to now is     1742.4 secs

     total energy              =  -12150.66703851 Ry
     estimated scf accuracy    <       0.05112951 Ry

     total magnetization       =    90.13 Bohr mag/cell
     absolute magnetization    =    94.04 Bohr mag/cell

     iteration # 19     ecut=    60.00 Ry     beta= 0.30
     Davidson diagonalization with overlap
     c_bands:  1 eigenvalues not converged
     ethr =  8.29E-06,  avg # of iterations =  2.7

     negative rho (up, down):  1.604E-04 3.129E-03

     Adding external electric field

     Computed dipole along edir(3) : 
        Dipole                0.0266 Ry au,          0.0676 Debye
        Dipole field          0.0000 Ry au, 

        Potential amp.       -0.0032 Ry
        Total length         35.8658 bohr


     Adding external electric field

     Computed dipole along edir(3) : 
        Dipole                0.0266 Ry au,          0.0676 Debye
        Dipole field          0.0000 Ry au, 

        Potential amp.       -0.0032 Ry
        Total length         35.8658 bohr


     total cpu time spent up to now is     1833.8 secs

     total energy              =  -12150.66721612 Ry
     estimated scf accuracy    <       0.01825540 Ry

     total magnetization       =    90.45 Bohr mag/cell
     absolute magnetization    =    94.35 Bohr mag/cell

     iteration # 20     ecut=    60.00 Ry     beta= 0.30
     Davidson diagonalization with overlap
     c_bands:  1 eigenvalues not converged
     c_bands:  2 eigenvalues not converged
     c_bands:  1 eigenvalues not converged
     c_bands:  1 eigenvalues not converged
     ethr =  2.96E-06,  avg # of iterations =  6.1

     negative rho (up, down):  3.505E-03 6.356E-03

     Adding external electric field

     Computed dipole along edir(3) : 
        Dipole                0.1545 Ry au,          0.3928 Debye
        Dipole field          0.0003 Ry au, 

        Potential amp.       -0.0187 Ry
        Total length         35.8658 bohr


     Adding external electric field

     Computed dipole along edir(3) : 
        Dipole                0.1545 Ry au,          0.3928 Debye
        Dipole field          0.0003 Ry au, 

        Potential amp.       -0.0187 Ry
        Total length         35.8658 bohr


     total cpu time spent up to now is     1935.6 secs

     total energy              =  -12150.66489401 Ry
     estimated scf accuracy    <       0.01831455 Ry

     total magnetization       =    90.67 Bohr mag/cell
     absolute magnetization    =    94.58 Bohr mag/cell

     iteration # 21     ecut=    60.00 Ry     beta= 0.30
     Davidson diagonalization with overlap
     c_bands:  1 eigenvalues not converged
     c_bands:  1 eigenvalues not converged
     c_bands:  1 eigenvalues not converged
     ethr =  2.96E-06,  avg # of iterations =  6.9

     negative rho (up, down):  3.622E-03 6.605E-03

     Adding external electric field

     Computed dipole along edir(3) : 
        Dipole                0.0569 Ry au,          0.1445 Debye
        Dipole field          0.0001 Ry au, 

        Potential amp.       -0.0069 Ry
        Total length         35.8658 bohr


     Adding external electric field

     Computed dipole along edir(3) : 
        Dipole                0.0569 Ry au,          0.1445 Debye
        Dipole field          0.0001 Ry au, 

        Potential amp.       -0.0069 Ry
        Total length         35.8658 bohr


     total cpu time spent up to now is     2041.5 secs

     total energy              =  -12150.66586329 Ry
     estimated scf accuracy    <       0.00721918 Ry

     total magnetization       =    90.67 Bohr mag/cell
     absolute magnetization    =    94.56 Bohr mag/cell

     iteration # 22     ecut=    60.00 Ry     beta= 0.30
     Davidson diagonalization with overlap
     ethr =  1.17E-06,  avg # of iterations =  2.6

     negative rho (up, down):  3.104E-03 6.157E-03

     Adding external electric field

     Computed dipole along edir(3) : 
        Dipole                0.0925 Ry au,          0.2352 Debye
        Dipole field          0.0002 Ry au, 

        Potential amp.       -0.0112 Ry
        Total length         35.8658 bohr


     Adding external electric field

     Computed dipole along edir(3) : 
        Dipole                0.0925 Ry au,          0.2352 Debye
        Dipole field          0.0002 Ry au, 

        Potential amp.       -0.0112 Ry
        Total length         35.8658 bohr


     total cpu time spent up to now is     2132.4 secs

     total energy              =  -12150.66584057 Ry
     estimated scf accuracy    <       0.00243675 Ry

     total magnetization       =    90.77 Bohr mag/cell
     absolute magnetization    =    94.68 Bohr mag/cell

     iteration # 23     ecut=    60.00 Ry     beta= 0.30
     Davidson diagonalization with overlap
     c_bands:  1 eigenvalues not converged
     ethr =  3.95E-07,  avg # of iterations =  4.8

     negative rho (up, down):  2.886E-03 6.034E-03

     Adding external electric field

     Computed dipole along edir(3) : 
        Dipole                0.0751 Ry au,          0.1910 Debye
        Dipole field          0.0001 Ry au, 

        Potential amp.       -0.0091 Ry
        Total length         35.8658 bohr


     Adding external electric field

     Computed dipole along edir(3) : 
        Dipole                0.0751 Ry au,          0.1910 Debye
        Dipole field          0.0001 Ry au, 

        Potential amp.       -0.0091 Ry
        Total length         35.8658 bohr


     total cpu time spent up to now is     2231.4 secs

     total energy              =  -12150.66607407 Ry
     estimated scf accuracy    <       0.00145934 Ry

     total magnetization       =    90.81 Bohr mag/cell
     absolute magnetization    =    94.74 Bohr mag/cell

     iteration # 24     ecut=    60.00 Ry     beta= 0.30
     Davidson diagonalization with overlap
     ethr =  2.37E-07,  avg # of iterations =  1.9

     negative rho (up, down):  9.104E-04 4.131E-03

     Adding external electric field

     Computed dipole along edir(3) : 
        Dipole                0.1535 Ry au,          0.3902 Debye
        Dipole field          0.0003 Ry au, 

        Potential amp.       -0.0185 Ry
        Total length         35.8658 bohr


     Adding external electric field

     Computed dipole along edir(3) : 
        Dipole                0.1535 Ry au,          0.3902 Debye
        Dipole field          0.0003 Ry au, 

        Potential amp.       -0.0185 Ry
        Total length         35.8658 bohr


     total cpu time spent up to now is     2322.2 secs

     total energy              =  -12150.66587174 Ry
     estimated scf accuracy    <       0.00200999 Ry

     total magnetization       =    90.85 Bohr mag/cell
     absolute magnetization    =    94.79 Bohr mag/cell

     iteration # 25     ecut=    60.00 Ry     beta= 0.30
     Davidson diagonalization with overlap
     ethr =  2.37E-07,  avg # of iterations =  3.3

     negative rho (up, down):  2.097E-03 5.321E-03

     Adding external electric field

     Computed dipole along edir(3) : 
        Dipole                0.0972 Ry au,          0.2472 Debye
        Dipole field          0.0002 Ry au, 

        Potential amp.       -0.0118 Ry
        Total length         35.8658 bohr


     Adding external electric field

     Computed dipole along edir(3) : 
        Dipole                0.0972 Ry au,          0.2472 Debye
        Dipole field          0.0002 Ry au, 

        Potential amp.       -0.0118 Ry
        Total length         35.8658 bohr


     total cpu time spent up to now is     2418.0 secs

     total energy              =  -12150.66624792 Ry
     estimated scf accuracy    <       0.00272057 Ry

     total magnetization       =    90.83 Bohr mag/cell
     absolute magnetization    =    94.77 Bohr mag/cell

     iteration # 26     ecut=    60.00 Ry     beta= 0.30
     Davidson diagonalization with overlap
     ethr =  2.37E-07,  avg # of iterations =  3.1

     negative rho (up, down):  1.019E-03 4.320E-03

     Adding external electric field

     Computed dipole along edir(3) : 
        Dipole                0.1148 Ry au,          0.2917 Debye
        Dipole field          0.0002 Ry au, 

        Potential amp.       -0.0139 Ry
        Total length         35.8658 bohr


     Adding external electric field

     Computed dipole along edir(3) : 
        Dipole                0.1148 Ry au,          0.2917 Debye
        Dipole field          0.0002 Ry au, 

        Potential amp.       -0.0139 Ry
        Total length         35.8658 bohr


     total cpu time spent up to now is     2510.8 secs

     total energy              =  -12150.66629817 Ry
     estimated scf accuracy    <       0.00108353 Ry

     total magnetization       =    90.87 Bohr mag/cell
     absolute magnetization    =    94.82 Bohr mag/cell

     iteration # 27     ecut=    60.00 Ry     beta= 0.30
     Davidson diagonalization with overlap
     ethr =  1.76E-07,  avg # of iterations =  1.3

     negative rho (up, down):  8.609E-04 4.241E-03

     Adding external electric field

     Computed dipole along edir(3) : 
        Dipole                0.1190 Ry au,          0.3024 Debye
        Dipole field          0.0002 Ry au, 

        Potential amp.       -0.0144 Ry
        Total length         35.8658 bohr


     Adding external electric field

     Computed dipole along edir(3) : 
        Dipole                0.1190 Ry au,          0.3024 Debye
        Dipole field          0.0002 Ry au, 

        Potential amp.       -0.0144 Ry
        Total length         35.8658 bohr


     total cpu time spent up to now is     2594.2 secs

     total energy              =  -12150.66635677 Ry
     estimated scf accuracy    <       0.00033598 Ry

     total magnetization       =    90.87 Bohr mag/cell
     absolute magnetization    =    94.83 Bohr mag/cell

     iteration # 28     ecut=    60.00 Ry     beta= 0.30
     Davidson diagonalization with overlap
     c_bands:  1 eigenvalues not converged
     ethr =  5.45E-08,  avg # of iterations =  3.9

     negative rho (up, down):  4.702E-04 3.949E-03

     Adding external electric field

     Computed dipole along edir(3) : 
        Dipole                0.1252 Ry au,          0.3182 Debye
        Dipole field          0.0002 Ry au, 

        Potential amp.       -0.0151 Ry
        Total length         35.8658 bohr


     Adding external electric field

     Computed dipole along edir(3) : 
        Dipole                0.1252 Ry au,          0.3182 Debye
        Dipole field          0.0002 Ry au, 

        Potential amp.       -0.0151 Ry
        Total length         35.8658 bohr


     total cpu time spent up to now is     2689.6 secs

     total energy              =  -12150.66637840 Ry
     estimated scf accuracy    <       0.00023216 Ry

     total magnetization       =    90.88 Bohr mag/cell
     absolute magnetization    =    94.83 Bohr mag/cell

     iteration # 29     ecut=    60.00 Ry     beta= 0.30
     Davidson diagonalization with overlap
     ethr =  3.76E-08,  avg # of iterations =  1.9

     negative rho (up, down):  1.134E-04 3.616E-03

     Adding external electric field

     Computed dipole along edir(3) : 
        Dipole                0.1388 Ry au,          0.3527 Debye
        Dipole field          0.0002 Ry au, 

        Potential amp.       -0.0168 Ry
        Total length         35.8658 bohr


     Adding external electric field

     Computed dipole along edir(3) : 
        Dipole                0.1388 Ry au,          0.3527 Debye
        Dipole field          0.0002 Ry au, 

        Potential amp.       -0.0168 Ry
        Total length         35.8658 bohr


     total cpu time spent up to now is     2777.5 secs

     total energy              =  -12150.66638039 Ry
     estimated scf accuracy    <       0.00020037 Ry

     total magnetization       =    90.88 Bohr mag/cell
     absolute magnetization    =    94.84 Bohr mag/cell

     iteration # 30     ecut=    60.00 Ry     beta= 0.30
     Davidson diagonalization with overlap
     c_bands:  1 eigenvalues not converged
     ethr =  3.25E-08,  avg # of iterations =  2.2

     negative rho (up, down):  1.251E-04 3.676E-03

     Adding external electric field

     Computed dipole along edir(3) : 
        Dipole                0.1397 Ry au,          0.3551 Debye
        Dipole field          0.0002 Ry au, 

        Potential amp.       -0.0169 Ry
        Total length         35.8658 bohr


     Adding external electric field

     Computed dipole along edir(3) : 
        Dipole                0.1397 Ry au,          0.3551 Debye
        Dipole field          0.0002 Ry au, 

        Potential amp.       -0.0169 Ry
        Total length         35.8658 bohr


     total cpu time spent up to now is     2867.1 secs

     total energy              =  -12150.66640180 Ry
     estimated scf accuracy    <       0.00001050 Ry

     total magnetization       =    90.88 Bohr mag/cell
     absolute magnetization    =    94.84 Bohr mag/cell

     iteration # 31     ecut=    60.00 Ry     beta= 0.30
     Davidson diagonalization with overlap
     c_bands:  1 eigenvalues not converged
     ethr =  1.70E-09,  avg # of iterations = 10.1

     negative rho (up, down):  1.820E-04 3.761E-03

     Adding external electric field

     Computed dipole along edir(3) : 
        Dipole                0.1394 Ry au,          0.3542 Debye
        Dipole field          0.0002 Ry au, 

        Potential amp.       -0.0168 Ry
        Total length         35.8658 bohr


     Adding external electric field

     Computed dipole along edir(3) : 
        Dipole                0.1394 Ry au,          0.3542 Debye
        Dipole field          0.0002 Ry au, 

        Potential amp.       -0.0168 Ry
        Total length         35.8658 bohr


     total cpu time spent up to now is     2989.9 secs

     total energy              =  -12150.66641026 Ry
     estimated scf accuracy    <       0.00000697 Ry

     total magnetization       =    90.88 Bohr mag/cell
     absolute magnetization    =    94.84 Bohr mag/cell

     iteration # 32     ecut=    60.00 Ry     beta= 0.30
     Davidson diagonalization with overlap
     c_bands:  1 eigenvalues not converged
     ethr =  1.13E-09,  avg # of iterations =  2.7

     negative rho (up, down):  2.537E-04 3.850E-03

     Adding external electric field

     Computed dipole along edir(3) : 
        Dipole                0.1380 Ry au,          0.3507 Debye
        Dipole field          0.0002 Ry au, 

        Potential amp.       -0.0167 Ry
        Total length         35.8658 bohr


     Adding external electric field

     Computed dipole along edir(3) : 
        Dipole                0.1380 Ry au,          0.3507 Debye
        Dipole field          0.0002 Ry au, 

        Potential amp.       -0.0167 Ry
        Total length         35.8658 bohr


     total cpu time spent up to now is     3083.2 secs

     total energy              =  -12150.66641320 Ry
     estimated scf accuracy    <       0.00000307 Ry

     total magnetization       =    90.88 Bohr mag/cell
     absolute magnetization    =    94.85 Bohr mag/cell

     iteration # 33     ecut=    60.00 Ry     beta= 0.30
     Davidson diagonalization with overlap
     ethr =  4.98E-10,  avg # of iterations =  2.0

     negative rho (up, down):  3.021E-04 3.909E-03

     Adding external electric field

     Computed dipole along edir(3) : 
        Dipole                0.1366 Ry au,          0.3473 Debye
        Dipole field          0.0002 Ry au, 

        Potential amp.       -0.0165 Ry
        Total length         35.8658 bohr


     Adding external electric field

     Computed dipole along edir(3) : 
        Dipole                0.1366 Ry au,          0.3473 Debye
        Dipole field          0.0002 Ry au, 

        Potential amp.       -0.0165 Ry
        Total length         35.8658 bohr


     total cpu time spent up to now is     3174.5 secs

     total energy              =  -12150.66641426 Ry
     estimated scf accuracy    <       0.00000108 Ry

     total magnetization       =    90.88 Bohr mag/cell
     absolute magnetization    =    94.85 Bohr mag/cell

     iteration # 34     ecut=    60.00 Ry     beta= 0.30
     Davidson diagonalization with overlap
     ethr =  1.75E-10,  avg # of iterations =  3.2

     negative rho (up, down):  3.307E-04 3.943E-03

     Adding external electric field

     Computed dipole along edir(3) : 
        Dipole                0.1360 Ry au,          0.3458 Debye
        Dipole field          0.0002 Ry au, 

        Potential amp.       -0.0164 Ry
        Total length         35.8658 bohr


     Adding external electric field

     Computed dipole along edir(3) : 
        Dipole                0.1360 Ry au,          0.3458 Debye
        Dipole field          0.0002 Ry au, 

        Potential amp.       -0.0164 Ry
        Total length         35.8658 bohr


     total cpu time spent up to now is     3270.3 secs

     total energy              =  -12150.66641471 Ry
     estimated scf accuracy    <       0.00000065 Ry

     total magnetization       =    90.89 Bohr mag/cell
     absolute magnetization    =    94.85 Bohr mag/cell

     iteration # 35     ecut=    60.00 Ry     beta= 0.30
     Davidson diagonalization with overlap
     ethr =  1.05E-10,  avg # of iterations =  2.1

     negative rho (up, down):  3.586E-04 3.974E-03

     Adding external electric field

     Computed dipole along edir(3) : 
        Dipole                0.1354 Ry au,          0.3441 Debye
        Dipole field          0.0002 Ry au, 

        Potential amp.       -0.0164 Ry
        Total length         35.8658 bohr


     Adding external electric field

     Computed dipole along edir(3) : 
        Dipole                0.1354 Ry au,          0.3441 Debye
        Dipole field          0.0002 Ry au, 

        Potential amp.       -0.0164 Ry
        Total length         35.8658 bohr


     total cpu time spent up to now is     3363.5 secs

     total energy              =  -12150.66641496 Ry
     estimated scf accuracy    <       0.00000024 Ry

     total magnetization       =    90.89 Bohr mag/cell
     absolute magnetization    =    94.85 Bohr mag/cell

     iteration # 36     ecut=    60.00 Ry     beta= 0.30
     Davidson diagonalization with overlap
     ethr =  3.89E-11,  avg # of iterations =  4.5

     negative rho (up, down):  3.783E-04 3.996E-03

     Adding external electric field

     Computed dipole along edir(3) : 
        Dipole                0.1350 Ry au,          0.3432 Debye
        Dipole field          0.0002 Ry au, 

        Potential amp.       -0.0163 Ry
        Total length         35.8658 bohr


     Adding external electric field

     Computed dipole along edir(3) : 
        Dipole                0.1350 Ry au,          0.3432 Debye
        Dipole field          0.0002 Ry au, 

        Potential amp.       -0.0163 Ry
        Total length         35.8658 bohr


     total cpu time spent up to now is     3464.2 secs

     total energy              =  -12150.66641508 Ry
     estimated scf accuracy    <       0.00000014 Ry

     total magnetization       =    90.89 Bohr mag/cell
     absolute magnetization    =    94.85 Bohr mag/cell

     iteration # 37     ecut=    60.00 Ry     beta= 0.30
     Davidson diagonalization with overlap
     ethr =  2.33E-11,  avg # of iterations =  2.6

     negative rho (up, down):  3.955E-04 4.014E-03

     Adding external electric field

     Computed dipole along edir(3) : 
        Dipole                0.1354 Ry au,          0.3442 Debye
        Dipole field          0.0002 Ry au, 

        Potential amp.       -0.0164 Ry
        Total length         35.8658 bohr


     Adding external electric field

     Computed dipole along edir(3) : 
        Dipole                0.1354 Ry au,          0.3442 Debye
        Dipole field          0.0002 Ry au, 

        Potential amp.       -0.0164 Ry
        Total length         35.8658 bohr


     Magnetic moment per site  (integrated on atomic sphere of radius R)
     atom   1 (R=0.076)  charge= 11.8166  magn=  2.1903
     atom   2 (R=0.076)  charge= 11.8170  magn=  2.1843
     atom   3 (R=0.076)  charge= 11.8175  magn=  2.1761
     atom   4 (R=0.076)  charge= 11.8165  magn=  2.1805
     atom   5 (R=0.076)  charge= 11.8171  magn=  2.1841
     atom   6 (R=0.076)  charge= 11.8173  magn=  2.1836
     atom   7 (R=0.076)  charge= 11.8166  magn=  2.1775
     atom   8 (R=0.076)  charge= 11.8167  magn=  2.1769
     atom   9 (R=0.076)  charge= 11.8167  magn=  2.1784
     atom  10 (R=0.076)  charge= 11.8012  magn=  2.0312
     atom  11 (R=0.076)  charge= 11.8014  magn=  2.0346
     atom  12 (R=0.076)  charge= 11.8013  magn=  2.0321
     atom  13 (R=0.076)  charge= 11.8014  magn=  2.0280
     atom  14 (R=0.076)  charge= 11.8002  magn=  2.0125
     atom  15 (R=0.076)  charge= 11.8017  magn=  2.0408
     atom  16 (R=0.076)  charge= 11.8007  magn=  2.0197
     atom  17 (R=0.076)  charge= 11.8010  magn=  2.0366
     atom  18 (R=0.076)  charge= 11.8013  magn=  2.0363
     atom  19 (R=0.076)  charge= 11.7991  magn=  2.0445
     atom  20 (R=0.076)  charge= 11.7972  magn=  1.9748
     atom  21 (R=0.076)  charge= 11.7986  magn=  2.0366
     atom  22 (R=0.076)  charge= 11.7996  magn=  2.0069
     atom  23 (R=0.076)  charge= 11.7983  magn=  1.9855
     atom  24 (R=0.076)  charge= 11.8005  magn=  2.0275
     atom  25 (R=0.076)  charge= 11.8000  magn=  2.0326
     atom  26 (R=0.076)  charge= 11.8010  magn=  2.0312
     atom  27 (R=0.076)  charge= 11.8017  magn=  2.0492
     atom  28 (R=0.076)  charge= 11.8227  magn=  2.2273
     atom  29 (R=0.076)  charge= 11.8273  magn=  2.2057
     atom  30 (R=0.076)  charge= 11.8475  magn=  2.1537
     atom  31 (R=0.076)  charge= 11.8217  magn=  2.2289
     atom  32 (R=0.076)  charge= 11.8640  magn=  1.7833
     atom  33 (R=0.076)  charge= 11.8355  magn=  1.9984
     atom  34 (R=0.076)  charge= 11.8168  magn=  2.2396
     atom  35 (R=0.076)  charge= 11.8176  magn=  1.8839
     atom  36 (R=0.076)  charge= 11.8214  magn=  2.2451
     atom  37 (R=0.065)  charge=  4.7190  magn=  0.0074
     atom  38 (R=0.065)  charge=  4.7197  magn= -0.0018
     atom  39 (R=0.065)  charge=  4.8149  magn=  0.0358
     atom  40 (R=0.059)  charge=  3.0902  magn=  0.0192
     atom  41 (R=0.059)  charge=  2.9909  magn=  0.0363
     atom  42 (R=0.059)  charge=  1.1504  magn= -0.0129
     atom  43 (R=0.059)  charge=  1.0648  magn=  0.0078

     total cpu time spent up to now is     3557.7 secs

     End of self-consistent calculation

 ------ SPIN UP ------------


          k = 0.0000 0.0000 0.0000 ( 58679 PWs)   bands (ev):

   -83.6461 -83.6241 -83.5920 -83.5811 -83.5754 -83.5640 -83.5542 -83.5330
   -83.5264 -83.5106 -83.5071 -83.5040 -83.5023 -83.4901 -83.4863 -83.4834
   -83.4794 -83.4436 -83.4242 -83.4140 -83.3959 -83.3849 -83.3822 -83.3777
   -83.3738 -83.3673 -83.3651 -83.3617 -83.3605 -83.3597 -83.3563 -83.3518
   -83.3424 -83.3411 -83.3376 -83.3348 -50.1646 -49.9853 -49.8138 -49.7952
   -49.7748 -49.7690 -49.7603 -49.7481 -49.7277 -49.7013 -49.6992 -49.6946
   -49.6934 -49.6873 -49.6824 -49.6786 -49.6735 -49.6725 -49.6700 -49.6663
   -49.6545 -49.6455 -49.6277 -49.6191 -49.6074 -49.5991 -49.5945 -49.5875
   -49.5789 -49.5781 -49.5776 -49.5767 -49.5738 -49.5726 -49.5706 -49.5686
   -49.5655 -49.5503 -49.5488 -49.5315 -49.5235 -49.5208 -49.5175 -49.5132
   -49.5099 -49.5041 -49.5016 -49.5005 -49.4983 -49.4974 -49.4952 -49.4922
   -49.4907 -49.4895 -49.4883 -49.4766 -49.4760 -49.4727 -49.4715 -49.4683
   -49.4665 -49.4578 -49.4573 -49.4503 -49.4474 -49.4419 -49.4381 -49.4296
   -49.4243 -49.4166 -49.4136 -49.4059 -49.4038 -49.3965 -49.3945 -49.3900
   -49.3845 -49.3736 -49.3694 -49.3675 -49.3658 -49.3634 -49.3607 -49.3579
   -49.3545 -49.3514 -49.3370 -49.3360 -49.3350 -49.3347 -49.3318 -49.3285
   -49.3274 -49.3252 -49.3226 -49.3127 -49.3070 -49.2911 -49.2848 -49.2825
   -49.2793 -49.2708 -49.2701 -49.2695 -49.2692 -49.2670 -49.2636 -49.2536
   -27.2452 -24.0994 -22.8555 -19.5277 -16.0010 -12.1246  -9.3618  -8.0629
    -7.8782  -6.0678  -5.5843  -4.8819  -3.8829  -3.4275  -3.1788  -3.0714
    -2.5529  -2.5218  -2.1110  -1.9505  -0.7825  -0.6376  -0.6344  -0.6134
    -0.6063  -0.3660  -0.2277  -0.1874  -0.1591  -0.1462  -0.1100  -0.0818
    -0.0162   0.0964   0.3647   0.3789   0.4917   0.4995   0.5144   0.5364
     0.5404   0.5437   0.5693   0.5901   0.7114   0.7191   0.8859   0.9101
     0.9186   0.9204   0.9273   0.9561   0.9606   0.9718   0.9794   0.9980
     1.1272   1.1793   1.1934   1.2027   1.2164   1.2403   1.2611   1.2790
     1.3254   1.4288   1.4524   1.4631   1.4779   1.4935   1.5007   1.5067
     1.5094   1.5229   1.5692   1.5722   1.5799   1.5870   1.6100   1.6185
     1.6394   1.6857   1.6963   1.6983   1.7043   1.7327   1.7375   1.7616
     1.7821   1.7892   1.8266   1.8573   1.8752   1.9592   2.0266   2.0339
     2.0402   2.0515   2.0788   2.0920   2.1036   2.1279   2.1398   2.2049
     2.2358   2.2713   2.3065   2.3816   2.4085   2.4684   2.5364   2.5543
     2.6045   2.6403   2.6632   2.6687   2.6774   2.6926   2.7265   2.7591
     2.7624   2.8044   2.8310   2.8867   2.8992   2.9235   2.9602   3.0223
     3.0411   3.0835   3.1216   3.1815   3.1977   3.2263   3.2525   3.2578
     3.2724   3.2850   3.2997   3.3331   3.3439   3.3616   3.3750   3.3952
     3.3972   3.4012   3.4136   3.4162   3.4238   3.4331   3.4435   3.4550
     3.4847   3.5112   3.5133   3.5182   3.5231   3.5305   3.5341   3.5529
     3.5686   3.5743   3.5923   3.6016   3.6079   3.6198   3.6243   3.6306
     3.6362   3.6459   3.6506   3.6547   3.6571   3.6712   3.6723   3.6763
     3.6847   3.6883   3.6964   3.7076   3.7388   3.7508   3.7627   3.7662
     3.7684   3.7693   3.7807   3.7842   3.8035   3.8327   3.8783   3.8803
     3.8866   3.8936   3.9129   3.9702   3.9908   4.0098   4.0132   4.0295
     4.0416   4.0437   4.0485   4.0683   4.0878   4.1657   4.1711   4.1741
     4.1859   4.2514   4.2556   4.3744   4.4000   4.4819   4.6105   4.8081
     4.8427   5.1004   5.2693   5.4567   5.6517   6.0638   6.1397   6.4999
     6.8898   7.5063   7.6592

          k = 0.0000 0.2828 0.0000 ( 58504 PWs)   bands (ev):

   -83.6458 -83.6239 -83.5916 -83.5822 -83.5751 -83.5652 -83.5531 -83.5305
   -83.5262 -83.5129 -83.5095 -83.5019 -83.4990 -83.4969 -83.4854 -83.4831
   -83.4764 -83.4434 -83.4228 -83.4142 -83.3969 -83.3850 -83.3822 -83.3777
   -83.3741 -83.3682 -83.3653 -83.3632 -83.3586 -83.3571 -83.3546 -83.3516
   -83.3467 -83.3421 -83.3414 -83.3286 -50.1650 -49.9853 -49.8138 -49.7952
   -49.7770 -49.7691 -49.7605 -49.7483 -49.7251 -49.7027 -49.7010 -49.6999
   -49.6944 -49.6923 -49.6908 -49.6898 -49.6778 -49.6765 -49.6746 -49.6683
   -49.6617 -49.6487 -49.6381 -49.6217 -49.6107 -49.6085 -49.6076 -49.5981
   -49.5968 -49.5959 -49.5903 -49.5738 -49.5659 -49.5638 -49.5548 -49.5442
   -49.5416 -49.5381 -49.5362 -49.5340 -49.5288 -49.5209 -49.5180 -49.5172
   -49.5161 -49.5154 -49.5100 -49.5094 -49.5060 -49.4954 -49.4917 -49.4908
   -49.4832 -49.4805 -49.4719 -49.4700 -49.4645 -49.4589 -49.4534 -49.4484
   -49.4475 -49.4422 -49.4386 -49.4356 -49.4336 -49.4295 -49.4264 -49.4203
   -49.4165 -49.4150 -49.4075 -49.4046 -49.4017 -49.3966 -49.3926 -49.3882
   -49.3868 -49.3824 -49.3772 -49.3741 -49.3711 -49.3689 -49.3621 -49.3518
   -49.3510 -49.3466 -49.3411 -49.3404 -49.3393 -49.3374 -49.3369 -49.3307
   -49.3275 -49.3242 -49.3216 -49.3136 -49.3067 -49.2980 -49.2924 -49.2888
   -49.2869 -49.2810 -49.2801 -49.2784 -49.2769 -49.2759 -49.2718 -49.2666
   -27.2452 -24.0994 -22.8555 -19.5278 -16.0011 -12.1239  -9.3612  -8.0629
    -7.8781  -6.0755  -5.5839  -4.8720  -3.8692  -3.4284  -3.0995  -2.9927
    -2.5536  -2.5263  -2.1130  -1.7935  -1.0367  -1.0087  -0.8673  -0.6497
    -0.3595  -0.2081  -0.1792  -0.1440  -0.1091  -0.0699  -0.0052   0.0199
     0.0633   0.0883   0.1591   0.3051   0.3156   0.4947   0.5587   0.5678
     0.6333   0.6410   0.6697   0.6821   0.7009   0.7077   0.7240   0.7816
     0.7852   0.9109   0.9334   0.9534   0.9996   1.0071   1.0153   1.0234
     1.0452   1.0673   1.2047   1.2469   1.3015   1.3146   1.3447   1.3565
     1.4585   1.4715   1.4857   1.4914   1.5091   1.5154   1.5314   1.5405
     1.5474   1.5594   1.5687   1.5935   1.5989   1.6066   1.6112   1.6337
     1.6491   1.6558   1.6671   1.6698   1.6955   1.7325   1.7684   1.8862
     1.9089   1.9237   1.9301   1.9440   1.9677   1.9800   1.9909   2.0064
     2.0169   2.0307   2.0385   2.0546   2.0830   2.0941   2.1540   2.2496
     2.2566   2.2683   2.3061   2.3477   2.3488   2.3606   2.3725   2.3913
     2.4417   2.4968   2.5129   2.5303   2.5566   2.5648   2.5773   2.6048
     2.6275   2.6747   2.7227   2.7628   2.8461   2.8584   2.9202   2.9327
     2.9479   2.9643   3.0002   3.0376   3.0634   3.0721   3.0995   3.1373
     3.1489   3.1577   3.1659   3.1950   3.2126   3.2223   3.2332   3.2509
     3.2753   3.2883   3.2938   3.3052   3.3161   3.3336   3.3670   3.3810
     3.3934   3.4002   3.4099   3.4265   3.4680   3.4752   3.4891   3.4945
     3.5006   3.5124   3.5181   3.5258   3.5322   3.5336   3.5375   3.5607
     3.5708   3.5851   3.5986   3.6131   3.6228   3.6278   3.6327   3.6449
     3.6654   3.6750   3.6987   3.7031   3.7058   3.7225   3.7296   3.7420
     3.7579   3.7806   3.7904   3.7923   3.8134   3.8494   3.9406   4.0335
     4.0712   4.1119   4.1517   4.1727   4.2115   4.2244   4.2571   4.2765
     4.2946   4.3409   4.3640   4.3929   4.4150   4.4306   4.4627   4.5043
     4.5569   4.5885   4.6028   4.6162   4.6267   4.8026   4.8199   4.8592
     5.2273   5.3312   5.4606   5.6515   5.8544   6.0737   6.3071   6.6798
     7.2300   7.3582   7.7785

          k = 0.0000 0.5657 0.0000 ( 58506 PWs)   bands (ev):

   -83.6454 -83.6236 -83.5903 -83.5850 -83.5743 -83.5668 -83.5519 -83.5259
   -83.5242 -83.5156 -83.5126 -83.5091 -83.4955 -83.4927 -83.4882 -83.4857
   -83.4723 -83.4431 -83.4201 -83.4144 -83.3989 -83.3889 -83.3816 -83.3763
   -83.3702 -83.3688 -83.3661 -83.3643 -83.3595 -83.3579 -83.3521 -83.3499
   -83.3479 -83.3450 -83.3442 -83.3243 -50.1656 -49.9853 -49.8141 -49.7950
   -49.7803 -49.7694 -49.7615 -49.7485 -49.7183 -49.7167 -49.7083 -49.7062
   -49.7017 -49.6995 -49.6910 -49.6887 -49.6870 -49.6815 -49.6801 -49.6773
   -49.6637 -49.6571 -49.6487 -49.6410 -49.6250 -49.6233 -49.6184 -49.6180
   -49.6093 -49.5894 -49.5809 -49.5740 -49.5612 -49.5571 -49.5533 -49.5501
   -49.5401 -49.5369 -49.5313 -49.5294 -49.5290 -49.5284 -49.5275 -49.5168
   -49.5125 -49.5114 -49.5022 -49.4947 -49.4890 -49.4818 -49.4760 -49.4691
   -49.4605 -49.4552 -49.4535 -49.4516 -49.4483 -49.4425 -49.4420 -49.4378
   -49.4356 -49.4299 -49.4271 -49.4231 -49.4222 -49.4195 -49.4172 -49.4136
   -49.4086 -49.4045 -49.4012 -49.3989 -49.3967 -49.3929 -49.3902 -49.3863
   -49.3852 -49.3845 -49.3791 -49.3740 -49.3714 -49.3593 -49.3582 -49.3560
   -49.3499 -49.3471 -49.3452 -49.3414 -49.3413 -49.3320 -49.3303 -49.3281
   -49.3218 -49.3188 -49.3169 -49.3152 -49.3128 -49.3110 -49.3091 -49.3070
   -49.3059 -49.3036 -49.3023 -49.3017 -49.2991 -49.2979 -49.2974 -49.2876
   -27.2452 -24.0993 -22.8555 -19.5278 -16.0011 -12.1230  -9.3602  -8.0630
    -7.8779  -6.0876  -5.5832  -4.8567  -3.8512  -3.4292  -3.0947  -2.5619
    -2.5528  -2.4930  -2.1147  -1.7431  -1.3503  -1.2446  -1.2176  -0.7051
    -0.5214  -0.2367  -0.1910  -0.0526  -0.0036   0.1043   0.1698   0.1982
     0.2537   0.2890   0.3078   0.3205   0.3410   0.4119   0.4835   0.5368
     0.5444   0.5538   0.5810   0.5842   0.6109   0.7033   0.7216   0.7784
     0.8715   0.9084   0.9374   0.9517   0.9940   1.0082   1.0324   1.0554
     1.0666   1.0831   1.2458   1.3533   1.3694   1.3754   1.3812   1.4209
     1.4380   1.4443   1.4604   1.4823   1.4950   1.5049   1.5240   1.5781
     1.5877   1.6011   1.6086   1.6431   1.6576   1.6680   1.6708   1.6915
     1.7020   1.7192   1.7467   1.7619   1.7890   1.8175   1.8457   1.8810
     1.8894   1.9027   1.9085   1.9203   1.9378   1.9551   1.9691   2.0176
     2.0394   2.0556   2.1113   2.1265   2.1595   2.1807   2.1857   2.2190
     2.2322   2.2372   2.2522   2.2560   2.2669   2.2824   2.3192   2.3341
     2.3402   2.3824   2.3987   2.4155   2.4307   2.4513   2.4702   2.4931
     2.5112   2.5406   2.5814   2.5995   2.6151   2.6923   2.7029   2.7217
     2.7642   2.7994   2.8239   2.8354   2.8462   2.8908   2.9096   2.9653
     2.9700   3.0012   3.0152   3.0246   3.0292   3.0579   3.1054   3.1169
     3.1288   3.1443   3.1584   3.1636   3.1795   3.1928   3.2106   3.2221
     3.2348   3.2690   3.2915   3.3281   3.3623   3.3887   3.4069   3.4162
     3.4303   3.4404   3.4742   3.4802   3.4973   3.5254   3.5350   3.5518
     3.5602   3.5684   3.5898   3.5971   3.6026   3.6085   3.6319   3.6424
     3.6572   3.6898   3.6959   3.6979   3.6999   3.7084   3.7300   3.7617
     3.7767   3.8209   3.8429   3.8527   3.8597   3.8873   3.9962   4.0944
     4.1351   4.2236   4.2730   4.3276   4.4107   4.4339   4.4747   4.4958
     4.5052   4.5206   4.5417   4.5532   4.5641   4.6217   4.6533   4.6862
     4.7798   4.8021   4.8918   5.2711   5.3848   5.6142   5.7172   5.8571
     5.8888   5.8927   5.9246   6.1919   6.4560   6.6897   6.8627   7.0704
     7.1928   7.2558   7.2849

          k = 0.2000-0.1414 0.0000 ( 58555 PWs)   bands (ev):

   -83.6460 -83.6240 -83.5920 -83.5813 -83.5752 -83.5645 -83.5541 -83.5315
   -83.5261 -83.5135 -83.5075 -83.5032 -83.4993 -83.4931 -83.4879 -83.4821
   -83.4776 -83.4434 -83.4234 -83.4144 -83.3958 -83.3874 -83.3806 -83.3767
   -83.3743 -83.3670 -83.3654 -83.3621 -83.3595 -83.3582 -83.3561 -83.3516
   -83.3474 -83.3424 -83.3355 -83.3325 -50.1650 -49.9852 -49.8134 -49.7956
   -49.7758 -49.7689 -49.7608 -49.7479 -49.7258 -49.7042 -49.6991 -49.6953
   -49.6926 -49.6906 -49.6858 -49.6836 -49.6790 -49.6759 -49.6733 -49.6687
   -49.6583 -49.6436 -49.6302 -49.6226 -49.6144 -49.6010 -49.5996 -49.5985
   -49.5950 -49.5855 -49.5808 -49.5743 -49.5683 -49.5651 -49.5612 -49.5502
   -49.5472 -49.5444 -49.5397 -49.5335 -49.5325 -49.5268 -49.5233 -49.5211
   -49.5140 -49.5108 -49.5046 -49.5004 -49.4993 -49.4964 -49.4932 -49.4909
   -49.4875 -49.4849 -49.4801 -49.4766 -49.4746 -49.4666 -49.4569 -49.4531
   -49.4523 -49.4493 -49.4471 -49.4430 -49.4398 -49.4378 -49.4323 -49.4308
   -49.4184 -49.4150 -49.4088 -49.4052 -49.4005 -49.3991 -49.3957 -49.3887
   -49.3851 -49.3751 -49.3733 -49.3715 -49.3692 -49.3650 -49.3622 -49.3572
   -49.3517 -49.3466 -49.3437 -49.3425 -49.3402 -49.3367 -49.3334 -49.3305
   -49.3266 -49.3209 -49.3162 -49.3118 -49.3070 -49.2961 -49.2895 -49.2877
   -49.2808 -49.2802 -49.2773 -49.2745 -49.2707 -49.2697 -49.2649 -49.2589
   -27.2452 -24.0994 -22.8555 -19.5277 -16.0010 -12.1244  -9.3618  -8.0628
    -7.8782  -6.0701  -5.5843  -4.8749  -3.8734  -3.4269  -3.1051  -3.0278
    -2.5530  -2.5235  -2.1142  -1.8344  -1.3661  -0.7501  -0.6902  -0.5010
    -0.4156  -0.3496  -0.2397  -0.1599  -0.1060  -0.0599  -0.0138   0.0406
     0.0719   0.1216   0.2661   0.4163   0.4590   0.4807   0.5115   0.5445
     0.5963   0.6189   0.6334   0.6395   0.6578   0.6767   0.7031   0.8203
     0.8278   0.8477   0.8586   0.8891   0.9303   1.0184   1.0602   1.0719
     1.1046   1.1262   1.1635   1.2025   1.2300   1.2980   1.3350   1.3445
     1.3860   1.4013   1.4264   1.4352   1.4426   1.4462   1.4625   1.4764
     1.4891   1.5042   1.5488   1.5684   1.5922   1.6299   1.6401   1.6483
     1.6585   1.6746   1.6858   1.7062   1.7171   1.7240   1.7615   1.7770
     1.7953   1.8498   1.8743   1.8839   1.9262   1.9596   1.9730   2.0022
     2.0158   2.0754   2.0866   2.1400   2.1652   2.1901   2.2138   2.2475
     2.2697   2.2836   2.2973   2.3113   2.3318   2.3488   2.3805   2.4039
     2.4357   2.4694   2.5133   2.5603   2.5941   2.6066   2.6542   2.7149
     2.7942   2.8152   2.8570   2.9031   2.9167   2.9385   2.9805   3.0076
     3.0661   3.0733   3.0936   3.1288   3.1511   3.1686   3.1947   3.2098
     3.2284   3.2488   3.2716   3.2816   3.2908   3.3015   3.3216   3.3309
     3.3429   3.3544   3.3711   3.3788   3.3894   3.4074   3.4178   3.4275
     3.4419   3.4543   3.4627   3.4722   3.4811   3.4900   3.5095   3.5136
     3.5251   3.5392   3.5456   3.5541   3.5730   3.5850   3.5952   3.6057
     3.6104   3.6172   3.6223   3.6319   3.6402   3.6523   3.6581   3.6638
     3.6839   3.6879   3.7002   3.7155   3.7306   3.7630   3.7733   3.7881
     3.7957   3.8270   3.8397   3.8549   3.8700   3.8906   3.9030   3.9274
     3.9745   4.0021   4.0254   4.0454   4.0858   4.0918   4.1110   4.1203
     4.1272   4.1315   4.1470   4.1921   4.2291   4.2767   4.3318   4.3458
     4.3505   4.3699   4.3848   4.4370   4.5580   4.7083   4.7765   4.8505
     5.0758   5.3156   5.5675   5.7044   5.8152   5.8672   6.3434   6.3975
     6.6609   7.0427   7.2440

          k = 0.2000 0.1414 0.0000 ( 58555 PWs)   bands (ev):

   -83.6459 -83.6242 -83.5914 -83.5823 -83.5749 -83.5648 -83.5533 -83.5314
   -83.5264 -83.5140 -83.5073 -83.5019 -83.5003 -83.4934 -83.4871 -83.4831
   -83.4773 -83.4434 -83.4233 -83.4145 -83.3963 -83.3868 -83.3801 -83.3771
   -83.3745 -83.3675 -83.3646 -83.3628 -83.3590 -83.3583 -83.3567 -83.3512
   -83.3477 -83.3417 -83.3366 -83.3319 -50.1646 -49.9853 -49.8141 -49.7950
   -49.7756 -49.7697 -49.7599 -49.7483 -49.7257 -49.7046 -49.7015 -49.6988
   -49.6934 -49.6922 -49.6861 -49.6827 -49.6775 -49.6750 -49.6717 -49.6683
   -49.6490 -49.6427 -49.6362 -49.6204 -49.6150 -49.6020 -49.6007 -49.5980
   -49.5967 -49.5886 -49.5824 -49.5749 -49.5685 -49.5658 -49.5607 -49.5494
   -49.5470 -49.5422 -49.5382 -49.5345 -49.5298 -49.5255 -49.5219 -49.5190
   -49.5135 -49.5109 -49.5075 -49.5011 -49.4984 -49.4971 -49.4928 -49.4902
   -49.4887 -49.4866 -49.4802 -49.4784 -49.4738 -49.4665 -49.4584 -49.4522
   -49.4520 -49.4504 -49.4459 -49.4432 -49.4394 -49.4360 -49.4329 -49.4292
   -49.4179 -49.4158 -49.4074 -49.4060 -49.4018 -49.3997 -49.3944 -49.3901
   -49.3844 -49.3765 -49.3736 -49.3703 -49.3684 -49.3658 -49.3632 -49.3574
   -49.3511 -49.3477 -49.3437 -49.3413 -49.3401 -49.3372 -49.3327 -49.3299
   -49.3273 -49.3206 -49.3163 -49.3117 -49.3072 -49.2963 -49.2882 -49.2868
   -49.2818 -49.2805 -49.2764 -49.2733 -49.2712 -49.2700 -49.2674 -49.2586
   -27.2452 -24.0994 -22.8555 -19.5278 -16.0011 -12.1240  -9.3614  -8.0629
    -7.8781  -6.0728  -5.5842  -4.8781  -3.8725  -3.4256  -3.1010  -3.0313
    -2.5532  -2.5276  -2.1094  -1.8342  -1.3536  -0.7851  -0.6765  -0.4583
    -0.4159  -0.3670  -0.2832  -0.1539  -0.1009  -0.0592  -0.0086   0.0446
     0.0689   0.1454   0.2693   0.4168   0.4628   0.4985   0.5057   0.5506
     0.5849   0.6162   0.6208   0.6362   0.6585   0.6836   0.7039   0.8159
     0.8371   0.8554   0.8619   0.9019   0.9253   1.0269   1.0548   1.0684
     1.0975   1.1243   1.1343   1.1931   1.2364   1.3032   1.3380   1.3447
     1.3832   1.4081   1.4308   1.4357   1.4415   1.4512   1.4583   1.4829
     1.4882   1.5051   1.5530   1.5695   1.5874   1.6236   1.6378   1.6459
     1.6625   1.6769   1.6857   1.7087   1.7143   1.7369   1.7525   1.7852
     1.7898   1.8468   1.8773   1.9039   1.9149   1.9638   1.9730   1.9960
     2.0211   2.0723   2.0885   2.1400   2.1749   2.1827   2.2128   2.2434
     2.2599   2.2831   2.3028   2.3093   2.3281   2.3443   2.3767   2.4110
     2.4379   2.4638   2.4825   2.5390   2.5735   2.6295   2.6657   2.7256
     2.7512   2.8017   2.8521   2.9021   2.9168   2.9601   2.9645   3.0399
     3.0633   3.0787   3.0935   3.1249   3.1461   3.1800   3.1958   3.2068
     3.2259   3.2524   3.2644   3.2768   3.2945   3.3005   3.3242   3.3343
     3.3459   3.3543   3.3683   3.3770   3.3911   3.3992   3.4167   3.4250
     3.4295   3.4553   3.4611   3.4748   3.4864   3.4937   3.5088   3.5208
     3.5243   3.5332   3.5471   3.5538   3.5753   3.5810   3.5957   3.6037
     3.6107   3.6156   3.6226   3.6315   3.6439   3.6520   3.6606   3.6642
     3.6687   3.6996   3.7050   3.7208   3.7373   3.7658   3.7738   3.7869
     3.7992   3.8133   3.8441   3.8598   3.8751   3.8865   3.9109   3.9422
     3.9757   4.0129   4.0265   4.0398   4.0828   4.0962   4.1138   4.1195
     4.1264   4.1333   4.1485   4.1834   4.2280   4.2738   4.3252   4.3510
     4.3590   4.3682   4.3831   4.4235   4.5601   4.7474   4.7597   4.8742
     5.0097   5.3633   5.5515   5.7449   5.7978   5.9041   6.3141   6.4076
     6.5989   6.9690   7.2830

          k = 0.2000 0.4243 0.0000 ( 58544 PWs)   bands (ev):

   -83.6456 -83.6240 -83.5904 -83.5842 -83.5748 -83.5660 -83.5520 -83.5270
   -83.5263 -83.5184 -83.5072 -83.5048 -83.4974 -83.4953 -83.4888 -83.4828
   -83.4741 -83.4432 -83.4210 -83.4152 -83.3980 -83.3874 -83.3807 -83.3773
   -83.3721 -83.3696 -83.3650 -83.3633 -83.3581 -83.3565 -83.3543 -83.3509
   -83.3492 -83.3469 -83.3387 -83.3266 -50.1650 -49.9853 -49.8145 -49.7946
   -49.7786 -49.7700 -49.7602 -49.7486 -49.7210 -49.7143 -49.7086 -49.7011
   -49.6984 -49.6962 -49.6914 -49.6881 -49.6833 -49.6812 -49.6752 -49.6666
   -49.6656 -49.6480 -49.6410 -49.6362 -49.6310 -49.6127 -49.6109 -49.6049
   -49.5982 -49.5939 -49.5835 -49.5773 -49.5670 -49.5566 -49.5494 -49.5454
   -49.5434 -49.5395 -49.5362 -49.5325 -49.5308 -49.5257 -49.5210 -49.5199
   -49.5142 -49.5123 -49.5014 -49.4985 -49.4958 -49.4931 -49.4854 -49.4846
   -49.4720 -49.4683 -49.4653 -49.4599 -49.4554 -49.4521 -49.4473 -49.4420
   -49.4395 -49.4346 -49.4311 -49.4250 -49.4234 -49.4201 -49.4173 -49.4161
   -49.4150 -49.4118 -49.4084 -49.4021 -49.4003 -49.3980 -49.3940 -49.3914
   -49.3861 -49.3775 -49.3743 -49.3711 -49.3696 -49.3657 -49.3632 -49.3608
   -49.3550 -49.3510 -49.3484 -49.3460 -49.3429 -49.3312 -49.3273 -49.3229
   -49.3199 -49.3183 -49.3171 -49.3137 -49.3117 -49.3075 -49.3049 -49.3033
   -49.3000 -49.2975 -49.2942 -49.2898 -49.2861 -49.2793 -49.2775 -49.2712
   -27.2452 -24.0994 -22.8555 -19.5278 -16.0011 -12.1232  -9.3604  -8.0630
    -7.8780  -6.0835  -5.5836  -4.8664  -3.8566  -3.4264  -3.0905  -2.7264
    -2.5553  -2.5288  -2.1111  -1.7561  -1.5262  -1.2356  -0.7518  -0.5616
    -0.4544  -0.2919  -0.1455  -0.0773  -0.0222   0.1215   0.1338   0.1434
     0.1704   0.1900   0.2501   0.2691   0.3052   0.5025   0.5329   0.5526
     0.5943   0.6065   0.6322   0.6376   0.6599   0.6770   0.6906   0.7557
     0.7623   0.8203   0.8274   0.8926   0.9067   0.9287   0.9791   1.1002
     1.1206   1.1660   1.1903   1.2729   1.3446   1.3690   1.3923   1.4030
     1.4119   1.4164   1.4293   1.4472   1.4567   1.4825   1.5150   1.5409
     1.5646   1.5721   1.5875   1.6000   1.6198   1.6258   1.6433   1.6798
     1.6991   1.7419   1.7479   1.7675   1.7759   1.7973   1.8112   1.8293
     1.8512   1.8822   1.8936   1.9221   1.9808   1.9950   2.0147   2.0283
     2.0554   2.0622   2.0817   2.1063   2.1255   2.1427   2.1670   2.1851
     2.1950   2.2211   2.2327   2.2700   2.2756   2.2861   2.3096   2.3302
     2.3453   2.3740   2.4244   2.4496   2.5081   2.5225   2.5343   2.5529
     2.6017   2.6168   2.6352   2.6915   2.7305   2.7793   2.8084   2.8303
     2.8654   2.9240   2.9431   2.9636   2.9967   3.0192   3.0316   3.0493
     3.0782   3.0883   3.1126   3.1255   3.1446   3.1584   3.1742   3.1982
     3.2311   3.2539   3.2608   3.2904   3.2969   3.3043   3.3238   3.3326
     3.3578   3.3815   3.3910   3.4048   3.4166   3.4232   3.4402   3.4598
     3.4673   3.4823   3.4962   3.5086   3.5124   3.5140   3.5220   3.5338
     3.5480   3.5671   3.5947   3.6164   3.6281   3.6375   3.6537   3.6631
     3.6680   3.6742   3.6815   3.6968   3.7125   3.7224   3.7359   3.7436
     3.7489   3.7787   3.7902   3.8470   3.8773   3.9305   4.0293   4.0662
     4.0956   4.1516   4.1955   4.2435   4.2929   4.3188   4.3609   4.3637
     4.3802   4.4034   4.4254   4.4656   4.4837   4.5356   4.5483   4.5553
     4.5842   4.6627   4.8578   4.8942   4.9049   5.0914   5.3684   5.4818
     5.6979   5.7804   5.9077   6.0413   6.2087   6.3878   6.5341   6.6395
     6.7909   7.1048   7.2108

          k = 0.2000-0.7071 0.0000 ( 58508 PWs)   bands (ev):

   -83.6454 -83.6237 -83.5900 -83.5854 -83.5740 -83.5668 -83.5520 -83.5259
   -83.5227 -83.5172 -83.5151 -83.5062 -83.4951 -83.4919 -83.4890 -83.4864
   -83.4721 -83.4431 -83.4197 -83.4149 -83.3987 -83.3903 -83.3802 -83.3760
   -83.3714 -83.3665 -83.3652 -83.3636 -83.3623 -83.3577 -83.3526 -83.3508
   -83.3493 -83.3440 -83.3427 -83.3245 -50.1656 -49.9853 -49.8140 -49.7952
   -49.7801 -49.7696 -49.7615 -49.7484 -49.7171 -49.7149 -49.7105 -49.7080
   -49.7065 -49.6951 -49.6914 -49.6886 -49.6862 -49.6824 -49.6801 -49.6764
   -49.6633 -49.6561 -49.6486 -49.6411 -49.6287 -49.6270 -49.6140 -49.6133
   -49.6114 -49.5893 -49.5844 -49.5691 -49.5603 -49.5575 -49.5513 -49.5475
   -49.5396 -49.5369 -49.5329 -49.5322 -49.5308 -49.5292 -49.5267 -49.5217
   -49.5171 -49.5065 -49.4980 -49.4955 -49.4911 -49.4799 -49.4771 -49.4683
   -49.4642 -49.4538 -49.4479 -49.4467 -49.4451 -49.4424 -49.4420 -49.4373
   -49.4367 -49.4359 -49.4301 -49.4256 -49.4235 -49.4203 -49.4163 -49.4130
   -49.4097 -49.4039 -49.4028 -49.3999 -49.3933 -49.3896 -49.3860 -49.3844
   -49.3816 -49.3795 -49.3784 -49.3756 -49.3722 -49.3700 -49.3637 -49.3611
   -49.3538 -49.3515 -49.3477 -49.3373 -49.3331 -49.3296 -49.3274 -49.3245
   -49.3229 -49.3187 -49.3169 -49.3144 -49.3135 -49.3124 -49.3117 -49.3072
   -49.3059 -49.3042 -49.3018 -49.3011 -49.2996 -49.2987 -49.2927 -49.2905
   -27.2452 -24.0993 -22.8555 -19.5278 -16.0011 -12.1230  -9.3602  -8.0630
    -7.8780  -6.0873  -5.5834  -4.8564  -3.8493  -3.4278  -3.0933  -2.5580
    -2.5417  -2.1569  -2.0703  -2.0495  -1.8902  -0.9917  -0.9755  -0.8108
[...]

     Adding external electric field

     Computed dipole along edir(3) : 
        Dipole               -0.0110 Ry au,         -0.0279 Debye
        Dipole field         -0.0000 Ry au, 

        Potential amp.        0.0013 Ry
        Total length         35.8658 bohr


     Adding external electric field

     Computed dipole along edir(3) : 
        Dipole               -0.0110 Ry au,         -0.0279 Debye
        Dipole field         -0.0000 Ry au, 

        Potential amp.        0.0013 Ry
        Total length         35.8658 bohr


     total cpu time spent up to now is    12384.5 secs

     total energy              =  -12148.38508089 Ry
     estimated scf accuracy    <       1.66894803 Ry

     total magnetization       =    89.43 Bohr mag/cell
     absolute magnetization    =    93.38 Bohr mag/cell

     iteration # 85     ecut=    60.00 Ry     beta= 0.30
     Davidson diagonalization with overlap
     ethr =  1.44E-04,  avg # of iterations =  5.1

     negative rho (up, down):  2.004E+01 2.001E+01

     Adding external electric field

     Computed dipole along edir(3) : 
        Dipole                0.1704 Ry au,          0.4332 Debye
        Dipole field          0.0003 Ry au, 

        Potential amp.       -0.0206 Ry
        Total length         35.8658 bohr


     Adding external electric field

     Computed dipole along edir(3) : 
        Dipole                0.1704 Ry au,          0.4332 Debye
        Dipole field          0.0003 Ry au, 

        Potential amp.       -0.0206 Ry
        Total length         35.8658 bohr


     total cpu time spent up to now is    12483.8 secs

     total energy              =  -12148.46511276 Ry
     estimated scf accuracy    <       6.94263924 Ry

     total magnetization       =    89.39 Bohr mag/cell
     absolute magnetization    =    93.64 Bohr mag/cell

     iteration # 86     ecut=    60.00 Ry     beta= 0.30
     Davidson diagonalization with overlap
     ethr =  1.44E-04,  avg # of iterations =  3.9

     negative rho (up, down):  2.008E+01 2.006E+01

     Adding external electric field

     Computed dipole along edir(3) : 
        Dipole                0.1989 Ry au,          0.5055 Debye
        Dipole field          0.0003 Ry au, 

        Potential amp.       -0.0240 Ry
        Total length         35.8658 bohr


     Adding external electric field

     Computed dipole along edir(3) : 
        Dipole                0.1989 Ry au,          0.5055 Debye
        Dipole field          0.0003 Ry au, 

        Potential amp.       -0.0240 Ry
        Total length         35.8658 bohr


     total cpu time spent up to now is    12580.6 secs

     total energy              =  -12148.52071603 Ry
     estimated scf accuracy    <       2.53335811 Ry

     total magnetization       =    89.39 Bohr mag/cell
     absolute magnetization    =    93.39 Bohr mag/cell

     iteration # 87     ecut=    60.00 Ry     beta= 0.30
     Davidson diagonalization with overlap
     ethr =  1.44E-04,  avg # of iterations =  2.3

     negative rho (up, down):  1.996E+01 1.990E+01

     Adding external electric field

     Computed dipole along edir(3) : 
        Dipole                0.0218 Ry au,          0.0555 Debye
        Dipole field          0.0000 Ry au, 

        Potential amp.       -0.0026 Ry
        Total length         35.8658 bohr


     Adding external electric field

     Computed dipole along edir(3) : 
        Dipole                0.0218 Ry au,          0.0555 Debye
        Dipole field          0.0000 Ry au, 

        Potential amp.       -0.0026 Ry
        Total length         35.8658 bohr


     total cpu time spent up to now is    12672.0 secs

     total energy              =  -12148.47979268 Ry
     estimated scf accuracy    <       2.64983187 Ry

     total magnetization       =    89.43 Bohr mag/cell
     absolute magnetization    =    93.40 Bohr mag/cell

     iteration # 88     ecut=    60.00 Ry     beta= 0.30
     Davidson diagonalization with overlap
     ethr =  1.44E-04,  avg # of iterations =  3.5

     negative rho (up, down):  2.012E+01 2.010E+01

     Adding external electric field

     Computed dipole along edir(3) : 
        Dipole                0.1959 Ry au,          0.4979 Debye
        Dipole field          0.0003 Ry au, 

        Potential amp.       -0.0237 Ry
        Total length         35.8658 bohr


     Adding external electric field

     Computed dipole along edir(3) : 
        Dipole                0.1959 Ry au,          0.4979 Debye
        Dipole field          0.0003 Ry au, 

        Potential amp.       -0.0237 Ry
        Total length         35.8658 bohr


     total cpu time spent up to now is    12766.9 secs

     total energy              =  -12148.49548206 Ry
     estimated scf accuracy    <       3.74151579 Ry

     total magnetization       =    89.29 Bohr mag/cell
     absolute magnetization    =    93.28 Bohr mag/cell

     iteration # 89     ecut=    60.00 Ry     beta= 0.30
     Davidson diagonalization with overlap
     ethr =  1.44E-04,  avg # of iterations =  3.0

     negative rho (up, down):  2.024E+01 2.019E+01

     Adding external electric field

     Computed dipole along edir(3) : 
        Dipole                0.2665 Ry au,          0.6774 Debye
        Dipole field          0.0004 Ry au, 

        Potential amp.       -0.0322 Ry
        Total length         35.8658 bohr


     Adding external electric field

     Computed dipole along edir(3) : 
        Dipole                0.2665 Ry au,          0.6774 Debye
        Dipole field          0.0004 Ry au, 

        Potential amp.       -0.0322 Ry
        Total length         35.8658 bohr


     total cpu time spent up to now is    12860.3 secs

     total energy              =  -12148.51276242 Ry
     estimated scf accuracy    <       2.65543288 Ry

     total magnetization       =    89.41 Bohr mag/cell
     absolute magnetization    =    93.40 Bohr mag/cell

     iteration # 90     ecut=    60.00 Ry     beta= 0.30
     Davidson diagonalization with overlap
     ethr =  1.44E-04,  avg # of iterations =  2.6

     negative rho (up, down):  2.024E+01 2.021E+01

     Adding external electric field

     Computed dipole along edir(3) : 
        Dipole                0.2820 Ry au,          0.7167 Debye
        Dipole field          0.0005 Ry au, 

        Potential amp.       -0.0341 Ry
        Total length         35.8658 bohr


     Adding external electric field

     Computed dipole along edir(3) : 
        Dipole                0.2820 Ry au,          0.7167 Debye
        Dipole field          0.0005 Ry au, 

        Potential amp.       -0.0341 Ry
        Total length         35.8658 bohr


     total cpu time spent up to now is    12952.4 secs

     total energy              =  -12148.52124804 Ry
     estimated scf accuracy    <       2.31330617 Ry

     total magnetization       =    89.34 Bohr mag/cell
     absolute magnetization    =    93.33 Bohr mag/cell

     iteration # 91     ecut=    60.00 Ry     beta= 0.30
     Davidson diagonalization with overlap
     ethr =  1.44E-04,  avg # of iterations =  2.0

     negative rho (up, down):  2.012E+01 2.009E+01

     Adding external electric field

     Computed dipole along edir(3) : 
        Dipole                0.2714 Ry au,          0.6898 Debye
        Dipole field          0.0005 Ry au, 

        Potential amp.       -0.0328 Ry
        Total length         35.8658 bohr


     Adding external electric field

     Computed dipole along edir(3) : 
        Dipole                0.2714 Ry au,          0.6898 Debye
        Dipole field          0.0005 Ry au, 

        Potential amp.       -0.0328 Ry
        Total length         35.8658 bohr


     total cpu time spent up to now is    13043.1 secs

     total energy              =  -12148.52314928 Ry
     estimated scf accuracy    <       2.29024499 Ry

     total magnetization       =    89.45 Bohr mag/cell
     absolute magnetization    =    93.43 Bohr mag/cell

     iteration # 92     ecut=    60.00 Ry     beta= 0.30
     Davidson diagonalization with overlap
     ethr =  1.44E-04,  avg # of iterations =  2.0

     negative rho (up, down):  2.012E+01 2.008E+01

     Adding external electric field

     Computed dipole along edir(3) : 
        Dipole                0.2892 Ry au,          0.7352 Debye
        Dipole field          0.0005 Ry au, 

        Potential amp.       -0.0350 Ry
        Total length         35.8658 bohr


     Adding external electric field

     Computed dipole along edir(3) : 
        Dipole                0.2892 Ry au,          0.7352 Debye
        Dipole field          0.0005 Ry au, 

        Potential amp.       -0.0350 Ry
        Total length         35.8658 bohr


     total cpu time spent up to now is    13134.0 secs

     total energy              =  -12148.52357834 Ry
     estimated scf accuracy    <       2.49491469 Ry

     total magnetization       =    89.45 Bohr mag/cell
     absolute magnetization    =    93.50 Bohr mag/cell

     iteration # 93     ecut=    60.00 Ry     beta= 0.30
     Davidson diagonalization with overlap
     ethr =  1.44E-04,  avg # of iterations =  1.9

     negative rho (up, down):  2.027E+01 2.029E+01

     Adding external electric field

     Computed dipole along edir(3) : 
        Dipole                0.3811 Ry au,          0.9687 Debye
        Dipole field          0.0006 Ry au, 

        Potential amp.       -0.0461 Ry
        Total length         35.8658 bohr


     Adding external electric field

     Computed dipole along edir(3) : 
        Dipole                0.3811 Ry au,          0.9687 Debye
        Dipole field          0.0006 Ry au, 

        Potential amp.       -0.0461 Ry
        Total length         35.8658 bohr


     total cpu time spent up to now is    13223.0 secs

     total energy              =  -12148.53776823 Ry
     estimated scf accuracy    <       2.46807976 Ry

     total magnetization       =    89.46 Bohr mag/cell
     absolute magnetization    =    93.49 Bohr mag/cell

     iteration # 94     ecut=    60.00 Ry     beta= 0.30
     Davidson diagonalization with overlap
     ethr =  1.44E-04,  avg # of iterations =  3.0

     negative rho (up, down):  2.025E+01 2.004E+01

     Adding external electric field

     Computed dipole along edir(3) : 
        Dipole                0.2821 Ry au,          0.7169 Debye
        Dipole field          0.0005 Ry au, 

        Potential amp.       -0.0341 Ry
        Total length         35.8658 bohr


     Adding external electric field

     Computed dipole along edir(3) : 
        Dipole                0.2821 Ry au,          0.7169 Debye
        Dipole field          0.0005 Ry au, 

        Potential amp.       -0.0341 Ry
        Total length         35.8658 bohr


     total cpu time spent up to now is    13316.9 secs

     total energy              =  -12148.37514144 Ry
     estimated scf accuracy    <       3.42339239 Ry

     total magnetization       =    89.34 Bohr mag/cell
     absolute magnetization    =    93.46 Bohr mag/cell

     iteration # 95     ecut=    60.00 Ry     beta= 0.30
     Davidson diagonalization with overlap
     ethr =  1.44E-04,  avg # of iterations =  4.9

     negative rho (up, down):  2.052E+01 2.049E+01

     Adding external electric field

     Computed dipole along edir(3) : 
        Dipole                0.6463 Ry au,          1.6427 Debye
        Dipole field          0.0011 Ry au, 

        Potential amp.       -0.0781 Ry
        Total length         35.8658 bohr


     Adding external electric field

     Computed dipole along edir(3) : 
        Dipole                0.6463 Ry au,          1.6427 Debye
        Dipole field          0.0011 Ry au, 

        Potential amp.       -0.0781 Ry
        Total length         35.8658 bohr


     total cpu time spent up to now is    13416.8 secs

     total energy              =  -12148.32137770 Ry
     estimated scf accuracy    <       9.48826122 Ry

     total magnetization       =    89.33 Bohr mag/cell
     absolute magnetization    =    95.04 Bohr mag/cell

     iteration # 96     ecut=    60.00 Ry     beta= 0.30
     Davidson diagonalization with overlap
     ethr =  1.44E-04,  avg # of iterations =  5.0

     negative rho (up, down):  1.994E+01 1.987E+01

     Adding external electric field

     Computed dipole along edir(3) : 
        Dipole                0.1042 Ry au,          0.2649 Debye
        Dipole field          0.0002 Ry au, 

        Potential amp.       -0.0126 Ry
        Total length         35.8658 bohr


     Adding external electric field

     Computed dipole along edir(3) : 
        Dipole                0.1042 Ry au,          0.2649 Debye
        Dipole field          0.0002 Ry au, 

        Potential amp.       -0.0126 Ry
        Total length         35.8658 bohr


     total cpu time spent up to now is    13518.8 secs

     total energy              =  -12148.08444737 Ry
     estimated scf accuracy    <       9.79844272 Ry

     total magnetization       =    89.74 Bohr mag/cell
     absolute magnetization    =    93.76 Bohr mag/cell

     iteration # 97     ecut=    60.00 Ry     beta= 0.30
     Davidson diagonalization with overlap
     ethr =  1.44E-04,  avg # of iterations =  5.0

     negative rho (up, down):  1.982E+01 1.972E+01

     Adding external electric field

     Computed dipole along edir(3) : 
        Dipole               -0.0559 Ry au,         -0.1420 Debye
        Dipole field         -0.0001 Ry au, 

        Potential amp.        0.0067 Ry
        Total length         35.8658 bohr


     Adding external electric field

     Computed dipole along edir(3) : 
        Dipole               -0.0559 Ry au,         -0.1420 Debye
        Dipole field         -0.0001 Ry au, 

        Potential amp.        0.0067 Ry
        Total length         35.8658 bohr


     total cpu time spent up to now is    13629.1 secs

     total energy              =  -12148.47353345 Ry
     estimated scf accuracy    <       3.41520408 Ry

     total magnetization       =    89.29 Bohr mag/cell
     absolute magnetization    =    93.32 Bohr mag/cell

     iteration # 98     ecut=    60.00 Ry     beta= 0.30
     Davidson diagonalization with overlap
     ethr =  1.44E-04,  avg # of iterations =  3.0

     negative rho (up, down):  1.991E+01 1.985E+01

     Adding external electric field

     Computed dipole along edir(3) : 
        Dipole                0.0683 Ry au,          0.1737 Debye
        Dipole field          0.0001 Ry au, 

        Potential amp.       -0.0083 Ry
        Total length         35.8658 bohr


     Adding external electric field

     Computed dipole along edir(3) : 
        Dipole                0.0683 Ry au,          0.1737 Debye
        Dipole field          0.0001 Ry au, 

        Potential amp.       -0.0083 Ry
        Total length         35.8658 bohr


     total cpu time spent up to now is    13724.4 secs

     total energy              =  -12148.45182928 Ry
     estimated scf accuracy    <       7.63008582 Ry

     total magnetization       =    89.18 Bohr mag/cell
     absolute magnetization    =    93.25 Bohr mag/cell

     iteration # 99     ecut=    60.00 Ry     beta= 0.30
     Davidson diagonalization with overlap
     ethr =  1.44E-04,  avg # of iterations =  2.2

     negative rho (up, down):  1.997E+01 1.994E+01

     Adding external electric field

     Computed dipole along edir(3) : 
        Dipole                0.1005 Ry au,          0.2554 Debye
        Dipole field          0.0002 Ry au, 

        Potential amp.       -0.0121 Ry
        Total length         35.8658 bohr


     Adding external electric field

     Computed dipole along edir(3) : 
        Dipole                0.1005 Ry au,          0.2554 Debye
        Dipole field          0.0002 Ry au, 

        Potential amp.       -0.0121 Ry
        Total length         35.8658 bohr


     total cpu time spent up to now is    13816.1 secs

     total energy              =  -12148.48346541 Ry
     estimated scf accuracy    <       3.66874201 Ry

     total magnetization       =    89.32 Bohr mag/cell
     absolute magnetization    =    93.34 Bohr mag/cell

     iteration #100     ecut=    60.00 Ry     beta= 0.30
     Davidson diagonalization with overlap
     ethr =  1.44E-04,  avg # of iterations =  2.0

     negative rho (up, down):  1.996E+01 1.994E+01

     Adding external electric field

     Computed dipole along edir(3) : 
        Dipole                0.1543 Ry au,          0.3921 Debye
        Dipole field          0.0003 Ry au, 

        Potential amp.       -0.0186 Ry
        Total length         35.8658 bohr


     Adding external electric field

     Computed dipole along edir(3) : 
        Dipole                0.1543 Ry au,          0.3921 Debye
        Dipole field          0.0003 Ry au, 

        Potential amp.       -0.0186 Ry
        Total length         35.8658 bohr


     total cpu time spent up to now is    13906.6 secs

     total energy              =  -12148.49615530 Ry
     estimated scf accuracy    <       3.07043309 Ry

     total magnetization       =    89.37 Bohr mag/cell
     absolute magnetization    =    93.38 Bohr mag/cell

     End of self-consistent calculation

     convergence NOT achieved after 100 iterations: stopping

     Writing config to output data dir ./Outputs/irontfa_newer.save/ :
     XML data file, charge density

     init_run     :     34.96s CPU     36.53s WALL (       1 calls)
     electrons    :  13621.04s CPU  13850.52s WALL (       2 calls)
     update_pot   :      0.91s CPU      0.92s WALL (       1 calls)
     forces       :     12.94s CPU     13.19s WALL (       1 calls)
     force_dftd3  :      0.28s CPU      0.28s WALL (       1 calls)

     Called by init_run:
     wfcinit      :     31.56s CPU     32.34s WALL (       1 calls)
     potinit      :      1.41s CPU      1.58s WALL (       1 calls)
     hinit0       :      1.15s CPU      1.52s WALL (       1 calls)

     Called by electrons:
     c_bands      :  11706.36s CPU  11899.89s WALL (     137 calls)
     sum_band     :   1699.82s CPU   1727.89s WALL (     137 calls)
     v_of_rho     :     31.82s CPU     32.59s WALL (     139 calls)
     newd         :     49.00s CPU     54.14s WALL (     139 calls)
     PAW_pot      :     89.15s CPU     89.99s WALL (     140 calls)
     mix_rho      :     44.61s CPU     45.32s WALL (     137 calls)
     energy_dftd3 :      0.36s CPU      0.37s WALL (       2 calls)

     Called by c_bands:
     init_us_2    :     71.52s CPU     72.36s WALL (    7202 calls)
     init_us_2:cp :     71.48s CPU     72.35s WALL (    7202 calls)
     cegterg      :  11404.17s CPU  11594.51s WALL (    3588 calls)

     Called by *egterg:
     cdiaghg      :   1988.39s CPU   2000.67s WALL (   15185 calls)
     h_psi        :   5817.71s CPU   5908.67s WALL (   15263 calls)
     s_psi        :    620.90s CPU    626.67s WALL (   15263 calls)
     g_psi        :     18.82s CPU     19.07s WALL (   11649 calls)

     Called by h_psi:
     h_psi:calbec :    675.99s CPU    682.28s WALL (   15263 calls)
     vloc_psi     :   4482.63s CPU   4536.97s WALL (   15263 calls)
     add_vuspsi   :    623.67s CPU    629.41s WALL (   15263 calls)

     General routines
     calbec       :    983.51s CPU    992.65s WALL (   18955 calls)
     fft          :     20.67s CPU     21.29s WALL (    3487 calls)
     ffts         :     18.70s CPU     18.99s WALL (   17220 calls)
     fftw         :   4232.42s CPU   4284.42s WALL ( 7039436 calls)
     interpolate  :      2.31s CPU      2.38s WALL (     278 calls)
     davcio       :      0.01s CPU      0.28s WALL (      44 calls)

     Parallel routines

     PWSCF        :      3h47m CPU      3h51m WALL


   This run was terminated on:   5:10:39  27Apr2026            

=------------------------------------------------------------------------------=
   JOB DONE.
=------------------------------------------------------------------------------=
