
     Program PWSCF v.7.2 starts on  5Mar2026 at 20: 1:14 

     This program is part of the open-source Quantum ESPRESSO suite
     for quantum simulation of materials; please cite
         "P. Giannozzi et al., J. Phys.:Condens. Matter 21 395502 (2009);
         "P. Giannozzi et al., J. Phys.:Condens. Matter 29 465901 (2017);
         "P. Giannozzi et al., J. Chem. Phys. 152 154105 (2020);
          URL http://www.quantum-espresso.org", 
     in publications or presentations arising from this work. More details at
     http://www.quantum-espresso.org/quote

     Parallel version (MPI & OpenMP), running on       4 processor cores
     Number of MPI processes:                 1
     Threads/MPI process:                     4

     MPI processes distributed on     1 nodes
     1352 MiB available memory on the printing compute node when the environment starts

     Reading input from sodiumTFA.in

     Current dimensions of program PWSCF are:
     Max number of different atomic species (ntypx) = 10
     Max number of k-points (npk) =  40000
     Max angular momentum in pseudopotentials (lmaxx) =  4
     file O.UPF: wavefunction(s)  2S 2P renormalized
     file F.UPF: wavefunction(s)  2S 2P renormalized
     file Na.UPF: wavefunction(s)  2P renormalized
     file C.UPF: wavefunction(s)  2S 2P renormalized

     IMPORTANT: XC functional enforced from input :
     Exchange-correlation= PBE
                           (   1   4   3   4   0   0   0)
     Any further DFT definition will be discarded
     Please, verify this is what you really want


     Subspace diagonalization in iterative solution of the eigenvalue problem:
     a serial algorithm will be used


     G-vector sticks info
     --------------------
     sticks:   dense  smooth     PW     G-vecs:    dense   smooth      PW
     Sum       12361    6181   1649              1033189   365061   50061

     Using Slab Decomposition



     bravais-lattice index     =            0
     lattice parameter (alat)  =      17.9819  a.u.
     unit-cell volume          =    5814.4031 (a.u.)^3
     number of atoms/cell      =            8
     number of atomic types    =            4
     number of electrons       =        50.00
     number of Kohn-Sham states=           30
     kinetic-energy cutoff     =      60.0000  Ry
     charge density cutoff     =     480.0000  Ry
     scf convergence threshold =      1.0E-07
     mixing beta               =       0.7000
     number of iterations used =            8  plain     mixing
     Exchange-correlation= PBE
                           (   1   4   3   4   0   0   0)

     celldm(1)=  17.981878  celldm(2)=   0.000000  celldm(3)=   0.000000
     celldm(4)=   0.000000  celldm(5)=   0.000000  celldm(6)=   0.000000

     crystal axes: (cart. coord. in units of alat)
               a(1) = (   1.000000   0.000000   0.000000 )  
               a(2) = (   0.000000   1.000000   0.000000 )  
               a(3) = (   0.000000   0.000000   1.000000 )  

     reciprocal axes: (cart. coord. in units 2 pi/alat)
               b(1) = (  1.000000  0.000000  0.000000 )  
               b(2) = (  0.000000  1.000000  0.000000 )  
               b(3) = (  0.000000  0.000000  1.000000 )  


     PseudoPot. # 1 for O  read from file:
     ./Pseudopotentials/O.UPF
     MD5 check sum: c2b90f53c2e0374da637a288a3f2c0d1
     Pseudo is Projector augmented-wave + core cor, Zval =  6.0
     Generated using 'atomic' code by A. Dal Corso  v.7.2
     Shape of augmentation charge: PSQ
     Using radial grid of 1095 points,  4 beta functions with: 
                l(1) =   0
                l(2) =   0
                l(3) =   1
                l(4) =   1
     Q(r) pseudized with 0 coefficients 


     PseudoPot. # 2 for F  read from file:
     ./Pseudopotentials/F.UPF
     MD5 check sum: 24f06cbbe4770390fadad187de636a74
     Pseudo is Projector augmented-wave + core cor, Zval =  7.0
     Generated using 'atomic' code by A. Dal Corso  v.7.2
     Shape of augmentation charge: PSQ
     Using radial grid of 1105 points,  4 beta functions with: 
                l(1) =   0
                l(2) =   0
                l(3) =   1
                l(4) =   1
     Q(r) pseudized with 0 coefficients 


     PseudoPot. # 3 for Na read from file:
     ./Pseudopotentials/Na.UPF
     MD5 check sum: 6eedcc51dca536c3cd7b0d5240357827
     Pseudo is Projector augmented-wave + core cor, Zval =  9.0
     Generated using 'atomic' code by A. Dal Corso  v.7.2
     Shape of augmentation charge: PSQ
     Using radial grid of 1121 points,  4 beta functions with: 
                l(1) =   0
                l(2) =   0
                l(3) =   1
                l(4) =   1
     Q(r) pseudized with 0 coefficients 


     PseudoPot. # 4 for C  read from file:
     ./Pseudopotentials/C.UPF
     MD5 check sum: 0dcd7e2f47656ebc741e5a19a8c99607
     Pseudo is Projector augmented-wave + core cor, Zval =  4.0
     Generated using 'atomic' code by A. Dal Corso  v.7.2
     Shape of augmentation charge: PSQ
     Using radial grid of 1073 points,  4 beta functions with: 
                l(1) =   0
                l(2) =   0
                l(3) =   1
                l(4) =   1
     Q(r) pseudized with 0 coefficients 


     atomic species   valence    mass     pseudopotential
        O              6.00    15.99900     O ( 1.00)
        F              7.00    18.99800     F ( 1.00)
        Na             9.00    22.98900     Na( 1.00)
        C              4.00    12.01060     C ( 1.00)

     No symmetry found



   Cartesian axes

     site n.     atom                  positions (alat units)
         1           Na  tau(   1) = (   0.6706408   0.5563128   0.2627265  )
         2           F   tau(   2) = (   0.4289220   0.3977521   0.6625436  )
         3           F   tau(   3) = (   0.5289262   0.5921171   0.7372735  )
         4           F   tau(   4) = (   0.3293592   0.6022479   0.6219471  )
         5           O   tau(   5) = (   0.4718725   0.5523929   0.3725672  )
         6           O   tau(   6) = (   0.6704307   0.5423463   0.4880722  )
         7           C   tau(   7) = (   0.5360618   0.5440803   0.4902161  )
         8           C   tau(   8) = (   0.4543644   0.5343489   0.6304595  )

     number of k points=    63  Marzari-Vanderbilt smearing, width (Ry)=  0.0050
                       cart. coord. in units 2pi/alat
        k(    1) = (   0.0000000   0.0000000   0.0000000), wk =   0.0160000
        k(    2) = (   0.0000000   0.0000000   0.2000000), wk =   0.0320000
        k(    3) = (   0.0000000   0.0000000   0.4000000), wk =   0.0320000
        k(    4) = (   0.0000000   0.2000000   0.2000000), wk =   0.0320000
        k(    5) = (   0.0000000   0.2000000   0.4000000), wk =   0.0320000
        k(    6) = (   0.0000000   0.4000000   0.4000000), wk =   0.0320000
        k(    7) = (   0.2000000   0.2000000   0.2000000), wk =   0.0320000
        k(    8) = (   0.2000000   0.2000000   0.4000000), wk =   0.0320000
        k(    9) = (   0.2000000   0.4000000   0.4000000), wk =   0.0320000
        k(   10) = (   0.4000000   0.4000000   0.4000000), wk =   0.0320000
        k(   11) = (   0.2000000   0.0000000   0.0000000), wk =   0.0320000
        k(   12) = (   0.0000000   0.2000000   0.0000000), wk =   0.0320000
        k(   13) = (   0.4000000   0.0000000   0.0000000), wk =   0.0320000
        k(   14) = (   0.0000000   0.4000000   0.0000000), wk =   0.0320000
        k(   15) = (   0.0000000  -0.2000000   0.2000000), wk =   0.0320000
        k(   16) = (   0.2000000   0.0000000  -0.2000000), wk =   0.0320000
        k(   17) = (  -0.2000000   0.0000000  -0.2000000), wk =   0.0320000
        k(   18) = (   0.2000000  -0.2000000   0.0000000), wk =   0.0320000
        k(   19) = (  -0.2000000  -0.2000000   0.0000000), wk =   0.0320000
        k(   20) = (   0.0000000  -0.2000000   0.4000000), wk =   0.0320000
        k(   21) = (   0.2000000   0.0000000  -0.4000000), wk =   0.0320000
        k(   22) = (  -0.2000000   0.0000000  -0.4000000), wk =   0.0320000
        k(   23) = (   0.4000000  -0.2000000   0.0000000), wk =   0.0320000
        k(   24) = (  -0.4000000  -0.2000000   0.0000000), wk =   0.0320000
        k(   25) = (   0.0000000   0.4000000   0.2000000), wk =   0.0320000
        k(   26) = (   0.0000000   0.4000000  -0.2000000), wk =   0.0320000
        k(   27) = (   0.2000000   0.4000000   0.0000000), wk =   0.0320000
        k(   28) = (  -0.2000000   0.4000000   0.0000000), wk =   0.0320000
        k(   29) = (   0.4000000   0.0000000   0.2000000), wk =   0.0320000
        k(   30) = (   0.4000000   0.0000000  -0.2000000), wk =   0.0320000
        k(   31) = (   0.0000000  -0.4000000   0.4000000), wk =   0.0320000
        k(   32) = (   0.4000000   0.0000000  -0.4000000), wk =   0.0320000
        k(   33) = (  -0.4000000   0.0000000  -0.4000000), wk =   0.0320000
        k(   34) = (   0.4000000  -0.4000000   0.0000000), wk =   0.0320000
        k(   35) = (  -0.4000000  -0.4000000   0.0000000), wk =   0.0320000
        k(   36) = (  -0.2000000  -0.2000000   0.2000000), wk =   0.0320000
        k(   37) = (  -0.2000000   0.2000000  -0.2000000), wk =   0.0320000
        k(   38) = (   0.2000000  -0.2000000  -0.2000000), wk =   0.0320000
        k(   39) = (  -0.2000000  -0.2000000   0.4000000), wk =   0.0320000
        k(   40) = (  -0.2000000   0.2000000  -0.4000000), wk =   0.0320000
        k(   41) = (   0.2000000  -0.2000000  -0.4000000), wk =   0.0320000
        k(   42) = (   0.4000000  -0.2000000   0.2000000), wk =   0.0320000
        k(   43) = (  -0.4000000  -0.2000000  -0.2000000), wk =   0.0320000
        k(   44) = (   0.4000000   0.2000000  -0.2000000), wk =   0.0320000
        k(   45) = (  -0.4000000   0.2000000   0.2000000), wk =   0.0320000
        k(   46) = (  -0.2000000   0.4000000   0.2000000), wk =   0.0320000
        k(   47) = (  -0.2000000  -0.4000000  -0.2000000), wk =   0.0320000
        k(   48) = (   0.2000000   0.4000000  -0.2000000), wk =   0.0320000
        k(   49) = (   0.2000000  -0.4000000   0.2000000), wk =   0.0320000
        k(   50) = (  -0.2000000  -0.4000000   0.4000000), wk =   0.0320000
        k(   51) = (  -0.2000000   0.4000000  -0.4000000), wk =   0.0320000
        k(   52) = (   0.2000000  -0.4000000  -0.4000000), wk =   0.0320000
        k(   53) = (   0.4000000   0.2000000  -0.4000000), wk =   0.0320000
        k(   54) = (  -0.4000000  -0.2000000  -0.4000000), wk =   0.0320000
        k(   55) = (   0.4000000  -0.2000000   0.4000000), wk =   0.0320000
        k(   56) = (  -0.4000000   0.2000000   0.4000000), wk =   0.0320000
        k(   57) = (   0.4000000  -0.4000000   0.2000000), wk =   0.0320000
        k(   58) = (  -0.4000000  -0.4000000  -0.2000000), wk =   0.0320000
        k(   59) = (   0.4000000   0.4000000  -0.2000000), wk =   0.0320000
        k(   60) = (  -0.4000000   0.4000000   0.2000000), wk =   0.0320000
        k(   61) = (  -0.4000000  -0.4000000   0.4000000), wk =   0.0320000
        k(   62) = (  -0.4000000   0.4000000  -0.4000000), wk =   0.0320000
        k(   63) = (   0.4000000  -0.4000000  -0.4000000), wk =   0.0320000

     Dense  grid:  1033189 G-vectors     FFT dimensions: ( 125, 125, 125)

     Smooth grid:   365061 G-vectors     FFT dimensions: (  90,  90,  90)

     Estimated max dynamical RAM per process >       2.77 GB

     Initial potential from superposition of free atoms

     starting charge      49.9936, renormalised to      50.0000

     negative rho (up, down):  7.124E-04 0.000E+00
     Starting wfcs are   33 randomized atomic wfcs
     Checking if some PAW data can be deallocated... 

     total cpu time spent up to now is      106.6 secs

     per-process dynamical memory:  1789.9 Mb

     Self-consistent Calculation

     iteration #  1     ecut=    60.00 Ry     beta= 0.70
     Davidson diagonalization with overlap
     ethr =  1.00E-02,  avg # of iterations =  5.8

     negative rho (up, down):  6.563E-04 0.000E+00

     total cpu time spent up to now is      547.1 secs

     total energy              =    -407.02475347 Ry
     estimated scf accuracy    <       1.18253320 Ry

     iteration #  2     ecut=    60.00 Ry     beta= 0.70
     Davidson diagonalization with overlap
     ethr =  2.37E-03,  avg # of iterations =  6.2

     negative rho (up, down):  6.464E-04 0.000E+00

     total cpu time spent up to now is     4500.7 secs

     total energy              =    -407.27755342 Ry
     estimated scf accuracy    <       1.65701171 Ry

     iteration #  3     ecut=    60.00 Ry     beta= 0.70
     Davidson diagonalization with overlap
     ethr =  2.37E-03,  avg # of iterations =  3.5

     negative rho (up, down):  9.456E-04 0.000E+00

     total cpu time spent up to now is     4653.1 secs

     total energy              =    -407.49304872 Ry
     estimated scf accuracy    <       0.08735238 Ry

     iteration #  4     ecut=    60.00 Ry     beta= 0.70
     Davidson diagonalization with overlap
     ethr =  1.75E-04,  avg # of iterations =  9.1

     negative rho (up, down):  1.232E-03 0.000E+00

     total cpu time spent up to now is     5041.0 secs

     total energy              =    -407.61849087 Ry
     estimated scf accuracy    <       0.13312346 Ry

     iteration #  5     ecut=    60.00 Ry     beta= 0.70
     Davidson diagonalization with overlap
     ethr =  1.75E-04,  avg # of iterations =  2.2

     negative rho (up, down):  1.539E-03 0.000E+00

     total cpu time spent up to now is     5187.3 secs

     total energy              =    -407.60807597 Ry
     estimated scf accuracy    <       0.04928752 Ry

     iteration #  6     ecut=    60.00 Ry     beta= 0.70
     Davidson diagonalization with overlap
     ethr =  9.86E-05,  avg # of iterations =  5.4

     negative rho (up, down):  1.666E-03 0.000E+00

     total cpu time spent up to now is     5410.7 secs

     total energy              =    -407.62026499 Ry
     estimated scf accuracy    <       0.00112225 Ry

     iteration #  7     ecut=    60.00 Ry     beta= 0.70
     Davidson diagonalization with overlap
     c_bands:  1 eigenvalues not converged
     c_bands:  1 eigenvalues not converged
     c_bands:  1 eigenvalues not converged
     c_bands:  1 eigenvalues not converged
     c_bands:  1 eigenvalues not converged
     c_bands:  1 eigenvalues not converged
     c_bands:  1 eigenvalues not converged
     c_bands:  1 eigenvalues not converged
     ethr =  2.24E-06,  avg # of iterations = 12.7

     negative rho (up, down):  1.898E-03 0.000E+00

     total cpu time spent up to now is     7221.1 secs

     total energy              =    -407.62117225 Ry
     estimated scf accuracy    <       0.00032316 Ry

     iteration #  8     ecut=    60.00 Ry     beta= 0.70
     Davidson diagonalization with overlap
     ethr =  6.46E-07,  avg # of iterations =  2.6

     negative rho (up, down):  1.928E-03 0.000E+00

     total cpu time spent up to now is     7421.1 secs

     total energy              =    -407.62116630 Ry
     estimated scf accuracy    <       0.00011417 Ry

     iteration #  9     ecut=    60.00 Ry     beta= 0.70
     Davidson diagonalization with overlap
     ethr =  2.28E-07,  avg # of iterations =  5.0

     negative rho (up, down):  1.929E-03 0.000E+00

     total cpu time spent up to now is     7560.9 secs

     total energy              =    -407.62119678 Ry
     estimated scf accuracy    <       0.00000486 Ry

     iteration # 10     ecut=    60.00 Ry     beta= 0.70
     Davidson diagonalization with overlap
     ethr =  9.72E-09,  avg # of iterations =  5.5

     negative rho (up, down):  1.934E-03 0.000E+00

     total cpu time spent up to now is     7797.2 secs

     total energy              =    -407.62120075 Ry
     estimated scf accuracy    <       0.00000385 Ry

     iteration # 11     ecut=    60.00 Ry     beta= 0.70
     Davidson diagonalization with overlap
     ethr =  7.70E-09,  avg # of iterations =  1.2

     negative rho (up, down):  1.939E-03 0.000E+00

     total cpu time spent up to now is     7916.3 secs

     total energy              =    -407.62120045 Ry
     estimated scf accuracy    <       0.00000161 Ry

     iteration # 12     ecut=    60.00 Ry     beta= 0.70
     Davidson diagonalization with overlap
     ethr =  3.23E-09,  avg # of iterations =  2.8

     negative rho (up, down):  1.940E-03 0.000E+00

     total cpu time spent up to now is     8046.6 secs

     total energy              =    -407.62120067 Ry
     estimated scf accuracy    <       0.00000021 Ry

     iteration # 13     ecut=    60.00 Ry     beta= 0.70
     Davidson diagonalization with overlap
     ethr =  4.21E-10,  avg # of iterations =  5.0

     negative rho (up, down):  1.940E-03 0.000E+00

     total cpu time spent up to now is     8276.6 secs

     End of self-consistent calculation

          k = 0.0000 0.0000 0.0000 ( 45769 PWs)   bands (ev):

   -56.0115 -31.8611 -29.6820 -29.5966 -27.9773 -27.9617 -27.9015 -25.2810
   -22.6218 -17.0617 -14.2816 -13.4892 -13.3970 -10.6970 -10.0749 -10.0475
    -9.4918  -9.4618  -8.9721  -8.9018  -8.6470  -8.5292  -5.8908  -5.5152
    -4.7469  -0.8533  -0.3352   0.7539   1.1700   1.2406

          k = 0.0000 0.0000 0.2000 ( 45652 PWs)   bands (ev):

   -56.0115 -31.8610 -29.6820 -29.5966 -27.9772 -27.9617 -27.9015 -25.2810
   -22.6217 -17.0617 -14.2816 -13.4892 -13.3970 -10.6972 -10.0750 -10.0475
    -9.4918  -9.4617  -8.9719  -8.9017  -8.6470  -8.5291  -5.8898  -5.5151
    -4.7468  -0.8407  -0.3372   0.6758   1.1962   1.2281

          k = 0.0000 0.0000 0.4000 ( 45596 PWs)   bands (ev):

   -56.0115 -31.8610 -29.6820 -29.5966 -27.9772 -27.9617 -27.9015 -25.2810
   -22.6217 -17.0616 -14.2816 -13.4892 -13.3970 -10.6975 -10.0750 -10.0475
    -9.4918  -9.4616  -8.9717  -8.9017  -8.6470  -8.5291  -5.8880  -5.5151
    -4.7468  -0.8190  -0.3404   0.5465   1.2539   1.2833

          k = 0.0000 0.2000 0.2000 ( 45613 PWs)   bands (ev):

   -56.0115 -31.8610 -29.6820 -29.5966 -27.9772 -27.9617 -27.9015 -25.2810
   -22.6217 -17.0617 -14.2816 -13.4892 -13.3970 -10.6972 -10.0750 -10.0474
    -9.4918  -9.4617  -8.9719  -8.9017  -8.6470  -8.5291  -5.8897  -5.5152
    -4.7468  -0.8189  -0.3410   0.6451   0.9995   1.3607

          k = 0.0000 0.2000 0.4000 ( 45619 PWs)   bands (ev):

   -56.0115 -31.8610 -29.6820 -29.5966 -27.9772 -27.9617 -27.9015 -25.2810
   -22.6217 -17.0616 -14.2816 -13.4892 -13.3970 -10.6975 -10.0750 -10.0475
    -9.4918  -9.4616  -8.9717  -8.9017  -8.6470  -8.5291  -5.8880  -5.5151
    -4.7467  -0.7996  -0.3443   0.5999   0.9446   1.4424

          k = 0.0000 0.4000 0.4000 ( 45656 PWs)   bands (ev):

   -56.0115 -31.8611 -29.6820 -29.5966 -27.9772 -27.9617 -27.9015 -25.2810
   -22.6217 -17.0616 -14.2816 -13.4892 -13.3970 -10.6975 -10.0751 -10.0475
    -9.4919  -9.4616  -8.9717  -8.9017  -8.6470  -8.5291  -5.8880  -5.5152
    -4.7467  -0.7660  -0.3501   0.6527   0.8263   1.2556

          k = 0.2000 0.2000 0.2000 ( 45622 PWs)   bands (ev):

   -56.0115 -31.8610 -29.6820 -29.5966 -27.9772 -27.9617 -27.9015 -25.2810
   -22.6217 -17.0617 -14.2816 -13.4892 -13.3970 -10.6972 -10.0750 -10.0475
    -9.4918  -9.4616  -8.9719  -8.9018  -8.6470  -8.5291  -5.8898  -5.5152
    -4.7469  -0.8011  -0.3406   0.6337   0.9717   1.2603

          k = 0.2000 0.2000 0.4000 ( 45632 PWs)   bands (ev):

   -56.0115 -31.8610 -29.6820 -29.5966 -27.9772 -27.9617 -27.9015 -25.2810
   -22.6217 -17.0616 -14.2816 -13.4892 -13.3970 -10.6975 -10.0750 -10.0475
    -9.4918  -9.4615  -8.9717  -8.9017  -8.6470  -8.5291  -5.8881  -5.5152
    -4.7469  -0.7843  -0.3437   0.6282   0.9824   1.1794

          k = 0.2000 0.4000 0.4000 ( 45631 PWs)   bands (ev):

   -56.0115 -31.8610 -29.6820 -29.5966 -27.9772 -27.9617 -27.9015 -25.2810
   -22.6217 -17.0616 -14.2816 -13.4892 -13.3970 -10.6975 -10.0751 -10.0475
    -9.4918  -9.4615  -8.9717  -8.9017  -8.6470  -8.5291  -5.8881  -5.5152
    -4.7469  -0.7522  -0.3491   0.6888   0.8472   1.2593

          k = 0.4000 0.4000 0.4000 ( 45677 PWs)   bands (ev):

   -56.0115 -31.8610 -29.6820 -29.5966 -27.9772 -27.9617 -27.9015 -25.2810
   -22.6217 -17.0616 -14.2816 -13.4892 -13.3970 -10.6975 -10.0751 -10.0476
    -9.4918  -9.4614  -8.9716  -8.9018  -8.6470  -8.5292  -5.8882  -5.5152
    -4.7470  -0.7307  -0.3480   0.7843   0.8719   1.1987

          k = 0.2000 0.0000 0.0000 ( 45652 PWs)   bands (ev):

   -56.0115 -31.8610 -29.6820 -29.5966 -27.9772 -27.9617 -27.9015 -25.2810
   -22.6217 -17.0617 -14.2816 -13.4892 -13.3970 -10.6970 -10.0749 -10.0474
    -9.4918  -9.4617  -8.9721  -8.9018  -8.6470  -8.5292  -5.8909  -5.5152
    -4.7470  -0.8351  -0.3354   0.6739   1.1932   1.2023

          k = 0.0000 0.2000 0.0000 ( 45652 PWs)   bands (ev):

   -56.0115 -31.8610 -29.6820 -29.5966 -27.9772 -27.9617 -27.9015 -25.2810
   -22.6217 -17.0617 -14.2816 -13.4892 -13.3970 -10.6970 -10.0749 -10.0474
    -9.4918  -9.4617  -8.9721  -8.9018  -8.6470  -8.5291  -5.8908  -5.5152
    -4.7469  -0.8308  -0.3371   0.6436   1.1153   1.2944

          k = 0.4000 0.0000 0.0000 ( 45596 PWs)   bands (ev):

   -56.0115 -31.8610 -29.6820 -29.5966 -27.9772 -27.9617 -27.9015 -25.2810
   -22.6217 -17.0617 -14.2816 -13.4892 -13.3970 -10.6970 -10.0749 -10.0475
    -9.4917  -9.4615  -8.9720  -8.9019  -8.6470  -8.5292  -5.8910  -5.5152
    -4.7471  -0.8031  -0.3359   0.5338   1.2100   1.2615

          k = 0.0000 0.4000 0.0000 ( 45596 PWs)   bands (ev):

   -56.0115 -31.8610 -29.6820 -29.5966 -27.9772 -27.9617 -27.9015 -25.2810
   -22.6217 -17.0617 -14.2816 -13.4892 -13.3969 -10.6970 -10.0749 -10.0474
    -9.4919  -9.4617  -8.9721  -8.9017  -8.6470  -8.5291  -5.8908  -5.5152
    -4.7468  -0.7903  -0.3407   0.4684   1.1750   1.3762

          k = 0.0000-0.2000 0.2000 ( 45613 PWs)   bands (ev):

   -56.0115 -31.8610 -29.6820 -29.5966 -27.9772 -27.9617 -27.9015 -25.2810
   -22.6217 -17.0617 -14.2816 -13.4892 -13.3970 -10.6972 -10.0750 -10.0474
    -9.4918  -9.4617  -8.9719  -8.9017  -8.6470  -8.5291  -5.8897  -5.5152
    -4.7468  -0.8200  -0.3382   0.6524   0.9723   1.3653

          k = 0.2000 0.0000-0.2000 ( 45613 PWs)   bands (ev):

   -56.0115 -31.8610 -29.6820 -29.5966 -27.9772 -27.9617 -27.9015 -25.2810
   -22.6217 -17.0617 -14.2816 -13.4892 -13.3970 -10.6972 -10.0750 -10.0475
    -9.4918  -9.4616  -8.9719  -8.9018  -8.6470  -8.5292  -5.8898  -5.5152
    -4.7469  -0.8254  -0.3372   0.7115   0.9739   1.2394

          k =-0.2000 0.0000-0.2000 ( 45613 PWs)   bands (ev):

   -56.0115 -31.8610 -29.6820 -29.5966 -27.9772 -27.9617 -27.9015 -25.2810
   -22.6217 -17.0617 -14.2816 -13.4892 -13.3970 -10.6972 -10.0750 -10.0475
    -9.4918  -9.4616  -8.9719  -8.9018  -8.6470  -8.5291  -5.8898  -5.5152
    -4.7469  -0.8218  -0.3373   0.6273   1.1595   1.2355

          k = 0.2000-0.2000 0.0000 ( 45613 PWs)   bands (ev):

   -56.0115 -31.8610 -29.6820 -29.5966 -27.9772 -27.9617 -27.9015 -25.2810
   -22.6217 -17.0617 -14.2816 -13.4892 -13.3969 -10.6970 -10.0749 -10.0474
    -9.4918  -9.4616  -8.9721  -8.9018  -8.6470  -8.5291  -5.8909  -5.5152
    -4.7470  -0.8135  -0.3377   0.6464   0.9577   1.4013

          k =-0.2000-0.2000 0.0000 ( 45613 PWs)   bands (ev):

   -56.0115 -31.8610 -29.6820 -29.5966 -27.9772 -27.9617 -27.9015 -25.2810
   -22.6217 -17.0617 -14.2816 -13.4892 -13.3970 -10.6970 -10.0749 -10.0474
    -9.4918  -9.4617  -8.9721  -8.9018  -8.6470  -8.5291  -5.8909  -5.5152
    -4.7470  -0.8137  -0.3371   0.6470   0.9572   1.3941

          k = 0.0000-0.2000 0.4000 ( 45619 PWs)   bands (ev):

   -56.0115 -31.8610 -29.6820 -29.5966 -27.9772 -27.9617 -27.9015 -25.2810
   -22.6217 -17.0616 -14.2816 -13.4892 -13.3970 -10.6975 -10.0750 -10.0475
    -9.4918  -9.4616  -8.9717  -8.9017  -8.6470  -8.5291  -5.8880  -5.5151
    -4.7467  -0.8003  -0.3427   0.6073   0.9253   1.4356

          k = 0.2000 0.0000-0.4000 ( 45619 PWs)   bands (ev):

   -56.0115 -31.8610 -29.6820 -29.5966 -27.9772 -27.9617 -27.9015 -25.2810
   -22.6217 -17.0616 -14.2816 -13.4892 -13.3970 -10.6975 -10.0750 -10.0475
    -9.4917  -9.4615  -8.9717  -8.9017  -8.6470  -8.5291  -5.8881  -5.5151
    -4.7469  -0.8052  -0.3401   0.6201   0.9824   1.3077

          k =-0.2000 0.0000-0.4000 ( 45619 PWs)   bands (ev):

   -56.0115 -31.8610 -29.6820 -29.5966 -27.9772 -27.9617 -27.9015 -25.2810
   -22.6217 -17.0616 -14.2816 -13.4892 -13.3970 -10.6975 -10.0750 -10.0475
    -9.4917  -9.4615  -8.9717  -8.9017  -8.6470  -8.5291  -5.8881  -5.5151
    -4.7469  -0.8028  -0.3402   0.5775   1.0761   1.3054

          k = 0.4000-0.2000 0.0000 ( 45619 PWs)   bands (ev):

   -56.0115 -31.8610 -29.6820 -29.5966 -27.9772 -27.9617 -27.9015 -25.2810
   -22.6217 -17.0617 -14.2816 -13.4892 -13.3970 -10.6970 -10.0749 -10.0475
    -9.4918  -9.4615  -8.9720  -8.9019  -8.6470  -8.5292  -5.8909  -5.5152
    -4.7471  -0.7835  -0.3381   0.5860   0.8995   1.5219

          k =-0.4000-0.2000 0.0000 ( 45619 PWs)   bands (ev):

   -56.0115 -31.8610 -29.6820 -29.5966 -27.9772 -27.9617 -27.9015 -25.2810
   -22.6217 -17.0617 -14.2816 -13.4892 -13.3970 -10.6970 -10.0749 -10.0475
    -9.4918  -9.4615  -8.9720  -8.9019  -8.6470  -8.5292  -5.8909  -5.5152
    -4.7471  -0.7836  -0.3377   0.5869   0.8979   1.5225

          k = 0.0000 0.4000 0.2000 ( 45619 PWs)   bands (ev):

   -56.0115 -31.8610 -29.6820 -29.5966 -27.9772 -27.9617 -27.9015 -25.2810
   -22.6217 -17.0617 -14.2816 -13.4892 -13.3970 -10.6972 -10.0750 -10.0474
    -9.4919  -9.4617  -8.9719  -8.9017  -8.6470  -8.5291  -5.8897  -5.5152
    -4.7468  -0.7810  -0.3452   0.5234   1.0090   1.4616

          k = 0.0000 0.4000-0.2000 ( 45619 PWs)   bands (ev):

   -56.0115 -31.8610 -29.6820 -29.5966 -27.9772 -27.9617 -27.9015 -25.2810
   -22.6217 -17.0617 -14.2816 -13.4892 -13.3970 -10.6972 -10.0750 -10.0474
    -9.4919  -9.4617  -8.9719  -8.9017  -8.6470  -8.5291  -5.8897  -5.5152
    -4.7468  -0.7818  -0.3431   0.5238   1.0002   1.4593

          k = 0.2000 0.4000 0.0000 ( 45619 PWs)   bands (ev):

   -56.0115 -31.8610 -29.6820 -29.5966 -27.9772 -27.9617 -27.9015 -25.2810
   -22.6217 -17.0617 -14.2816 -13.4892 -13.3970 -10.6970 -10.0749 -10.0474
    -9.4919  -9.4616  -8.9721  -8.9018  -8.6470  -8.5291  -5.8908  -5.5152
    -4.7470  -0.7753  -0.3408   0.5174   0.9686   1.5240

          k =-0.2000 0.4000 0.0000 ( 45619 PWs)   bands (ev):

   -56.0115 -31.8610 -29.6820 -29.5966 -27.9772 -27.9617 -27.9015 -25.2810
   -22.6217 -17.0617 -14.2816 -13.4892 -13.3970 -10.6970 -10.0749 -10.0474
    -9.4919  -9.4617  -8.9721  -8.9018  -8.6470  -8.5291  -5.8908  -5.5152
    -4.7470  -0.7751  -0.3413   0.5175   0.9685   1.5209

          k = 0.4000 0.0000 0.2000 ( 45619 PWs)   bands (ev):

   -56.0115 -31.8610 -29.6820 -29.5966 -27.9772 -27.9617 -27.9015 -25.2810
   -22.6217 -17.0617 -14.2816 -13.4892 -13.3970 -10.6972 -10.0750 -10.0475
    -9.4917  -9.4615  -8.9719  -8.9019  -8.6470  -8.5292  -5.8899  -5.5152
    -4.7471  -0.7926  -0.3374   0.5652   1.0740   1.2909

          k = 0.4000 0.0000-0.2000 ( 45619 PWs)   bands (ev):

   -56.0115 -31.8610 -29.6820 -29.5966 -27.9772 -27.9617 -27.9015 -25.2810
   -22.6217 -17.0617 -14.2816 -13.4892 -13.3970 -10.6972 -10.0750 -10.0475
    -9.4917  -9.4615  -8.9719  -8.9019  -8.6470  -8.5292  -5.8899  -5.5152
    -4.7471  -0.7950  -0.3373   0.6016   0.9969   1.2942

          k = 0.0000-0.4000 0.4000 ( 45656 PWs)   bands (ev):

   -56.0115 -31.8611 -29.6820 -29.5966 -27.9772 -27.9617 -27.9015 -25.2810
   -22.6217 -17.0616 -14.2816 -13.4892 -13.3970 -10.6975 -10.0751 -10.0475
    -9.4919  -9.4616  -8.9717  -8.9017  -8.6470  -8.5291  -5.8880  -5.5152
    -4.7467  -0.7666  -0.3489   0.6624   0.8096   1.2588

          k = 0.4000 0.0000-0.4000 ( 45656 PWs)   bands (ev):

   -56.0115 -31.8610 -29.6820 -29.5966 -27.9772 -27.9617 -27.9015 -25.2810
   -22.6217 -17.0616 -14.2816 -13.4892 -13.3970 -10.6975 -10.0751 -10.0476
    -9.4917  -9.4614  -8.9716  -8.9018  -8.6470  -8.5292  -5.8882  -5.5152
    -4.7470  -0.7789  -0.3396   0.7340   0.8126   1.2563

          k =-0.4000 0.0000-0.4000 ( 45656 PWs)   bands (ev):

   -56.0115 -31.8611 -29.6820 -29.5966 -27.9772 -27.9617 -27.9015 -25.2810
   -22.6217 -17.0616 -14.2816 -13.4892 -13.3970 -10.6975 -10.0751 -10.0476
    -9.4917  -9.4614  -8.9716  -8.9018  -8.6470  -8.5292  -5.8882  -5.5152
    -4.7470  -0.7773  -0.3397   0.6544   0.9287   1.2311

          k = 0.4000-0.4000 0.0000 ( 45656 PWs)   bands (ev):

   -56.0115 -31.8610 -29.6820 -29.5966 -27.9772 -27.9617 -27.9015 -25.2810
   -22.6217 -17.0617 -14.2816 -13.4892 -13.3970 -10.6970 -10.0749 -10.0475
    -9.4919  -9.4615  -8.9720  -8.9019  -8.6470  -8.5292  -5.8909  -5.5152
    -4.7471  -0.7489  -0.3419   0.6324   0.7695   1.2768

          k =-0.4000-0.4000 0.0000 ( 45656 PWs)   bands (ev):

   -56.0115 -31.8610 -29.6820 -29.5966 -27.9772 -27.9617 -27.9015 -25.2810
   -22.6217 -17.0617 -14.2816 -13.4892 -13.3970 -10.6970 -10.0749 -10.0475
    -9.4919  -9.4615  -8.9720  -8.9019  -8.6470  -8.5292  -5.8909  -5.5153
    -4.7471  -0.7490  -0.3416   0.6336   0.7678   1.2765

          k =-0.2000-0.2000 0.2000 ( 45622 PWs)   bands (ev):

   -56.0115 -31.8610 -29.6820 -29.5966 -27.9772 -27.9617 -27.9015 -25.2810
   -22.6217 -17.0617 -14.2816 -13.4892 -13.3970 -10.6972 -10.0750 -10.0475
    -9.4918  -9.4616  -8.9719  -8.9018  -8.6470  -8.5291  -5.8898  -5.5152
    -4.7469  -0.8057  -0.3381   0.6960   0.9909   1.0682

          k =-0.2000 0.2000-0.2000 ( 45622 PWs)   bands (ev):

   -56.0115 -31.8610 -29.6820 -29.5966 -27.9772 -27.9617 -27.9015 -25.2810
   -22.6217 -17.0617 -14.2816 -13.4892 -13.3970 -10.6972 -10.0750 -10.0475
    -9.4918  -9.4616  -8.9719  -8.9018  -8.6470  -8.5291  -5.8898  -5.5152
    -4.7469  -0.8020  -0.3385   0.6383   0.9548   1.2627

          k = 0.2000-0.2000-0.2000 ( 45622 PWs)   bands (ev):

   -56.0115 -31.8610 -29.6820 -29.5966 -27.9772 -27.9617 -27.9015 -25.2810
   -22.6217 -17.0617 -14.2816 -13.4892 -13.3970 -10.6972 -10.0750 -10.0475
    -9.4918  -9.4616  -8.9719  -8.9018  -8.6470  -8.5291  -5.8898  -5.5152
    -4.7469  -0.8045  -0.3412   0.6893   1.0021   1.0803

          k =-0.2000-0.2000 0.4000 ( 45632 PWs)   bands (ev):

   -56.0115 -31.8610 -29.6820 -29.5966 -27.9772 -27.9617 -27.9015 -25.2810
   -22.6217 -17.0616 -14.2816 -13.4892 -13.3970 -10.6975 -10.0751 -10.0475
    -9.4918  -9.4615  -8.9717  -8.9017  -8.6470  -8.5291  -5.8881  -5.5152
    -4.7469  -0.7873  -0.3422   0.6821   0.9269   1.1259

          k =-0.2000 0.2000-0.4000 ( 45632 PWs)   bands (ev):

   -56.0115 -31.8610 -29.6820 -29.5966 -27.9772 -27.9617 -27.9015 -25.2810
   -22.6217 -17.0616 -14.2816 -13.4892 -13.3970 -10.6975 -10.0751 -10.0475
    -9.4918  -9.4615  -8.9717  -8.9017  -8.6470  -8.5291  -5.8881  -5.5152
    -4.7469  -0.7848  -0.3425   0.6340   0.9592   1.1912

          k = 0.2000-0.2000-0.4000 ( 45632 PWs)   bands (ev):

   -56.0115 -31.8610 -29.6820 -29.5966 -27.9772 -27.9617 -27.9015 -25.2810
   -22.6217 -17.0616 -14.2816 -13.4892 -13.3970 -10.6975 -10.0751 -10.0475
    -9.4918  -9.4615  -8.9717  -8.9017  -8.6470  -8.5291  -5.8881  -5.5152
    -4.7469  -0.7865  -0.3441   0.6739   0.9348   1.1405

          k = 0.4000-0.2000 0.2000 ( 45632 PWs)   bands (ev):

   -56.0115 -31.8610 -29.6820 -29.5966 -27.9772 -27.9617 -27.9015 -25.2810
   -22.6217 -17.0617 -14.2816 -13.4892 -13.3970 -10.6972 -10.0750 -10.0475
    -9.4918  -9.4615  -8.9719  -8.9019  -8.6470  -8.5292  -5.8899  -5.5152
    -4.7471  -0.7745  -0.3387   0.6155   0.9369   1.2354

          k =-0.4000-0.2000-0.2000 ( 45632 PWs)   bands (ev):

   -56.0115 -31.8610 -29.6820 -29.5966 -27.9772 -27.9617 -27.9015 -25.2810
   -22.6217 -17.0617 -14.2816 -13.4892 -13.3970 -10.6972 -10.0750 -10.0475
    -9.4918  -9.4615  -8.9719  -8.9019  -8.6470  -8.5292  -5.8899  -5.5152
    -4.7471  -0.7736  -0.3406   0.6148   0.9386   1.2416

          k = 0.4000 0.2000-0.2000 ( 45632 PWs)   bands (ev):

   -56.0115 -31.8610 -29.6820 -29.5966 -27.9772 -27.9617 -27.9015 -25.2810
   -22.6217 -17.0617 -14.2816 -13.4892 -13.3970 -10.6972 -10.0750 -10.0475
    -9.4918  -9.4615  -8.9719  -8.9018  -8.6470  -8.5292  -5.8899  -5.5152
    -4.7471  -0.7770  -0.3384   0.6563   0.9057   1.1815

          k =-0.4000 0.2000 0.2000 ( 45632 PWs)   bands (ev):

   -56.0115 -31.8610 -29.6820 -29.5966 -27.9772 -27.9617 -27.9015 -25.2810
   -22.6217 -17.0617 -14.2816 -13.4892 -13.3970 -10.6972 -10.0750 -10.0475
    -9.4918  -9.4615  -8.9719  -8.9019  -8.6470  -8.5292  -5.8899  -5.5152
    -4.7471  -0.7759  -0.3410   0.6544   0.9059   1.1940

          k =-0.2000 0.4000 0.2000 ( 45632 PWs)   bands (ev):

   -56.0115 -31.8610 -29.6820 -29.5966 -27.9772 -27.9617 -27.9015 -25.2810
   -22.6217 -17.0617 -14.2816 -13.4892 -13.3970 -10.6972 -10.0750 -10.0475
    -9.4919  -9.4616  -8.9719  -8.9018  -8.6470  -8.5291  -5.8898  -5.5152
    -4.7469  -0.7684  -0.3456   0.5765   1.0554   1.1495

          k =-0.2000-0.4000-0.2000 ( 45632 PWs)   bands (ev):

   -56.0115 -31.8610 -29.6820 -29.5966 -27.9772 -27.9617 -27.9015 -25.2810
   -22.6217 -17.0617 -14.2816 -13.4892 -13.3970 -10.6972 -10.0750 -10.0475
    -9.4919  -9.4616  -8.9719  -8.9018  -8.6470  -8.5291  -5.8898  -5.5152
    -4.7469  -0.7650  -0.3445   0.5655   0.9076   1.4378

          k = 0.2000 0.4000-0.2000 ( 45632 PWs)   bands (ev):

   -56.0115 -31.8610 -29.6820 -29.5966 -27.9772 -27.9617 -27.9015 -25.2810
   -22.6217 -17.0617 -14.2816 -13.4892 -13.3970 -10.6972 -10.0750 -10.0475
    -9.4919  -9.4616  -8.9719  -8.9018  -8.6470  -8.5291  -5.8898  -5.5152
    -4.7469  -0.7693  -0.3432   0.5768   1.0460   1.1514

          k = 0.2000-0.4000 0.2000 ( 45632 PWs)   bands (ev):

   -56.0115 -31.8610 -29.6820 -29.5966 -27.9772 -27.9617 -27.9015 -25.2810
   -22.6217 -17.0617 -14.2816 -13.4892 -13.3970 -10.6972 -10.0750 -10.0475
    -9.4919  -9.4616  -8.9719  -8.9018  -8.6470  -8.5291  -5.8898  -5.5152
    -4.7469  -0.7657  -0.3430   0.5662   0.9016   1.4384

          k =-0.2000-0.4000 0.4000 ( 45631 PWs)   bands (ev):

   -56.0115 -31.8610 -29.6820 -29.5966 -27.9772 -27.9617 -27.9015 -25.2810
   -22.6217 -17.0616 -14.2816 -13.4892 -13.3970 -10.6975 -10.0751 -10.0475
    -9.4919  -9.4615  -8.9717  -8.9017  -8.6470  -8.5291  -5.8880  -5.5152
    -4.7469  -0.7549  -0.3483   0.7129   0.8751   1.1880

          k =-0.2000 0.4000-0.4000 ( 45631 PWs)   bands (ev):

   -56.0115 -31.8610 -29.6820 -29.5966 -27.9772 -27.9617 -27.9015 -25.2810
   -22.6217 -17.0616 -14.2816 -13.4892 -13.3970 -10.6975 -10.0751 -10.0475
    -9.4919  -9.4615  -8.9717  -8.9017  -8.6470  -8.5291  -5.8881  -5.5152
    -4.7469  -0.7526  -0.3482   0.6973   0.8313   1.2613

          k = 0.2000-0.4000-0.4000 ( 45631 PWs)   bands (ev):

   -56.0115 -31.8610 -29.6820 -29.5966 -27.9772 -27.9617 -27.9015 -25.2810
   -22.6217 -17.0616 -14.2816 -13.4892 -13.3970 -10.6975 -10.0751 -10.0475
    -9.4918  -9.4615  -8.9717  -8.9017  -8.6470  -8.5291  -5.8880  -5.5152
    -4.7469  -0.7543  -0.3497   0.7053   0.8851   1.2033

          k = 0.4000 0.2000-0.4000 ( 45631 PWs)   bands (ev):

   -56.0115 -31.8610 -29.6820 -29.5966 -27.9772 -27.9617 -27.9015 -25.2810
   -22.6217 -17.0616 -14.2816 -13.4892 -13.3970 -10.6975 -10.0751 -10.0476
    -9.4918  -9.4614  -8.9716  -8.9018  -8.6470  -8.5292  -5.8882  -5.5152
    -4.7470  -0.7623  -0.3417   0.7861   0.8657   1.0785

          k =-0.4000-0.2000-0.4000 ( 45631 PWs)   bands (ev):

   -56.0115 -31.8610 -29.6820 -29.5966 -27.9772 -27.9617 -27.9015 -25.2810
   -22.6217 -17.0616 -14.2816 -13.4892 -13.3970 -10.6975 -10.0751 -10.0476
    -9.4918  -9.4614  -8.9716  -8.9018  -8.6470  -8.5292  -5.8882  -5.5152
    -4.7470  -0.7602  -0.3430   0.7034   0.9740   1.1047

          k = 0.4000-0.2000 0.4000 ( 45631 PWs)   bands (ev):

   -56.0115 -31.8610 -29.6820 -29.5966 -27.9772 -27.9617 -27.9015 -25.2810
   -22.6217 -17.0616 -14.2816 -13.4892 -13.3970 -10.6975 -10.0751 -10.0476
    -9.4918  -9.4614  -8.9716  -8.9018  -8.6470  -8.5292  -5.8882  -5.5152
    -4.7470  -0.7607  -0.3419   0.7051   0.9733   1.0983

          k =-0.4000 0.2000 0.4000 ( 45631 PWs)   bands (ev):

   -56.0115 -31.8610 -29.6820 -29.5966 -27.9772 -27.9617 -27.9015 -25.2810
   -22.6217 -17.0616 -14.2816 -13.4892 -13.3970 -10.6975 -10.0751 -10.0476
    -9.4918  -9.4614  -8.9716  -8.9018  -8.6470  -8.5292  -5.8882  -5.5152
    -4.7470  -0.7617  -0.3432   0.7846   0.8581   1.0950

          k = 0.4000-0.4000 0.2000 ( 45631 PWs)   bands (ev):

   -56.0115 -31.8610 -29.6820 -29.5966 -27.9772 -27.9617 -27.9015 -25.2810
   -22.6217 -17.0617 -14.2816 -13.4892 -13.3970 -10.6972 -10.0750 -10.0475
    -9.4919  -9.4615  -8.9719  -8.9018  -8.6470  -8.5292  -5.8899  -5.5152
    -4.7471  -0.7417  -0.3432   0.6753   0.7959   1.3225

          k =-0.4000-0.4000-0.2000 ( 45631 PWs)   bands (ev):

   -56.0115 -31.8610 -29.6820 -29.5966 -27.9772 -27.9617 -27.9015 -25.2810
   -22.6217 -17.0617 -14.2816 -13.4892 -13.3970 -10.6972 -10.0750 -10.0475
    -9.4919  -9.4615  -8.9719  -8.9018  -8.6470  -8.5291  -5.8899  -5.5152
    -4.7471  -0.7410  -0.3446   0.6741   0.8001   1.3076

          k = 0.4000 0.4000-0.2000 ( 45631 PWs)   bands (ev):

   -56.0115 -31.8610 -29.6820 -29.5966 -27.9772 -27.9617 -27.9015 -25.2810
   -22.6217 -17.0617 -14.2816 -13.4892 -13.3970 -10.6972 -10.0750 -10.0475
    -9.4918  -9.4615  -8.9719  -8.9018  -8.6470  -8.5291  -5.8899  -5.5152
    -4.7471  -0.7441  -0.3433   0.6919   0.8194   1.2810

          k =-0.4000 0.4000 0.2000 ( 45631 PWs)   bands (ev):

   -56.0115 -31.8610 -29.6820 -29.5966 -27.9772 -27.9617 -27.9015 -25.2810
   -22.6217 -17.0617 -14.2816 -13.4892 -13.3970 -10.6972 -10.0750 -10.0475
    -9.4919  -9.4615  -8.9719  -8.9018  -8.6470  -8.5291  -5.8899  -5.5152
    -4.7471  -0.7432  -0.3451   0.6892   0.8254   1.2704

          k =-0.4000-0.4000 0.4000 ( 45677 PWs)   bands (ev):

   -56.0115 -31.8610 -29.6820 -29.5966 -27.9772 -27.9617 -27.9015 -25.2810
   -22.6217 -17.0616 -14.2816 -13.4892 -13.3970 -10.6975 -10.0751 -10.0476
    -9.4918  -9.4614  -8.9716  -8.9018  -8.6470  -8.5292  -5.8882  -5.5152
    -4.7470  -0.7327  -0.3473   0.8115   0.9016   1.0916

          k =-0.4000 0.4000-0.4000 ( 45677 PWs)   bands (ev):

   -56.0115 -31.8610 -29.6820 -29.5966 -27.9772 -27.9617 -27.9015 -25.2810
   -22.6217 -17.0616 -14.2816 -13.4892 -13.3970 -10.6975 -10.0751 -10.0476
    -9.4918  -9.4614  -8.9716  -8.9018  -8.6470  -8.5292  -5.8882  -5.5152
    -4.7470  -0.7311  -0.3472   0.7890   0.8644   1.1997

          k = 0.4000-0.4000-0.4000 ( 45677 PWs)   bands (ev):

   -56.0115 -31.8610 -29.6820 -29.5966 -27.9772 -27.9617 -27.9015 -25.2810
   -22.6217 -17.0616 -14.2816 -13.4892 -13.3970 -10.6975 -10.0751 -10.0476
    -9.4918  -9.4614  -8.9716  -8.9018  -8.6470  -8.5292  -5.8882  -5.5152
    -4.7470  -0.7321  -0.3483   0.8077   0.9011   1.1038

     the Fermi energy is    -1.4767 ev

!    total energy              =    -407.62120078 Ry
     total all-electron energy =     -1377.699768 Ry
     estimated scf accuracy    <          9.1E-09 Ry
     smearing contrib. (-TS)   =      -0.00000000 Ry
     internal energy E=F+TS    =    -407.62120078 Ry

     The total energy is F=E-TS. E is the sum of the following terms:
     one-electron contribution =    -742.70950536 Ry
     hartree contribution      =     383.51549634 Ry
     xc contribution           =     -67.48778881 Ry
     ewald contribution        =      99.27520725 Ry
     one-center paw contrib.   =     -80.21461020 Ry

     convergence has been achieved in  13 iterations

     negative rho (up, down):  1.940E-03 0.000E+00

     Forces acting on atoms (cartesian axes, Ry/au):

     atom    1 type  3   force =     0.00874488    0.00079024   -0.01758681
     atom    2 type  2   force =    -0.00293066   -0.00637257    0.00609148
     atom    3 type  2   force =    -0.00208236   -0.00027955    0.00809323
     atom    4 type  2   force =    -0.00005617   -0.00222723    0.00618630
     atom    5 type  1   force =    -0.05883843   -0.00313328    0.04379443
     atom    6 type  1   force =    -0.01002555   -0.00573587    0.07453790
     atom    7 type  4   force =     0.06033540    0.00744428   -0.10108424
     atom    8 type  4   force =     0.00485291    0.00951397   -0.02003228
     The non-local contrib.  to forces
     atom    1 type  3   force =     0.41873840    0.04014851   -0.71884317
     atom    2 type  2   force =     0.53369124    2.85134733   -0.64377455
     atom    3 type  2   force =    -1.61545181   -1.21438268   -2.17378601
     atom    4 type  2   force =     2.64637632   -1.43036330    0.25506610
     atom    5 type  1   force =     1.21461968   -0.14674433    1.88703359
     atom    6 type  1   force =    -2.23890489    0.02847998   -0.12698422
     atom    7 type  4   force =     0.04932067   -0.00039886   -0.08131055
     atom    8 type  4   force =    -0.34418079   -0.05967790    0.60063564
     The ionic contribution  to forces
     atom    1 type  3   force =     9.20997682    0.88179825  -13.86739224
     atom    2 type  2   force =    -5.02388490  -21.21555662    6.30545889
     atom    3 type  2   force =     9.73629880    9.00587765   17.17488777
     atom    4 type  2   force =   -19.78245309   10.49964770    0.74881094
     atom    5 type  1   force =   -11.18053715    1.03597858  -13.50341271
     atom    6 type  1   force =    17.39665654   -0.44992659    2.87447926
     atom    7 type  4   force =    -0.61729386    0.11197473    1.00234147
     atom    8 type  4   force =     0.26123684    0.13020631   -0.73517338
     The local contribution  to forces
     atom    1 type  3   force =    -9.61980316   -0.92113395   14.56829746
     atom    2 type  2   force =     4.48902030   18.36721462   -5.65774015
     atom    3 type  2   force =    -8.12824947   -7.79577774  -15.00017950
     atom    4 type  2   force =    17.14479585   -9.07625608   -0.99688495
     atom    5 type  1   force =     9.91548454   -0.89347429   11.67401330
     atom    6 type  1   force =   -15.18404764    0.41585246   -2.67347510
     atom    7 type  4   force =     0.62655189   -0.10434278   -1.01920821
     atom    8 type  4   force =     0.08094448   -0.06230184    0.12637147
     The core correction contribution to forces
     atom    1 type  3   force =    -0.00021637   -0.00002058    0.00037393
     atom    2 type  2   force =    -0.00174152   -0.00930950    0.00209864
     atom    3 type  2   force =     0.00528013    0.00397218    0.00710327
     atom    4 type  2   force =    -0.00866854    0.00468473   -0.00083501
     atom    5 type  1   force =    -0.00841286    0.00109839   -0.01376580
     atom    6 type  1   force =     0.01613172   -0.00014464    0.00052240
     atom    7 type  4   force =     0.00166612    0.00020689   -0.00289589
     atom    8 type  4   force =     0.00685596    0.00127433   -0.01190104
     The Hubbard contrib.    to forces
     atom    1 type  3   force =     0.00000000    0.00000000    0.00000000
     atom    2 type  2   force =     0.00000000    0.00000000    0.00000000
     atom    3 type  2   force =     0.00000000    0.00000000    0.00000000
     atom    4 type  2   force =     0.00000000    0.00000000    0.00000000
     atom    5 type  1   force =     0.00000000    0.00000000    0.00000000
     atom    6 type  1   force =     0.00000000    0.00000000    0.00000000
     atom    7 type  4   force =     0.00000000    0.00000000    0.00000000
     atom    8 type  4   force =     0.00000000    0.00000000    0.00000000
     The SCF correction term to forces
     atom    1 type  3   force =     0.00005568    0.00000184   -0.00002394
     atom    2 type  2   force =    -0.00000929   -0.00006456    0.00004749
     atom    3 type  2   force =     0.00004646    0.00003488    0.00006655
     atom    4 type  2   force =    -0.00010023    0.00006355    0.00002807
     atom    5 type  1   force =     0.00001384    0.00001220   -0.00007510
     atom    6 type  1   force =     0.00014519    0.00000675   -0.00000558
     atom    7 type  4   force =     0.00009706    0.00000813   -0.00001220
     atom    8 type  4   force =     0.00000291    0.00001690    0.00003388

     Total force =     0.161537     Total SCF correction =     0.000267


     Computing stress (Cartesian axis) and pressure


     negative rho (up, down):  1.940E-03 0.000E+00
          total   stress  (Ry/bohr**3)                   (kbar)     P=       -0.32
   0.00000545  -0.00000025   0.00001338            0.80       -0.04        1.97
  -0.00000025  -0.00000216   0.00000021           -0.04       -0.32        0.03
   0.00001338   0.00000021  -0.00000975            1.97        0.03       -1.43


     Writing all to output data dir ./Outputs/sodiumTFA.save/

     init_run     :    231.29s CPU    106.02s WALL (       1 calls)
     electrons    :   9320.58s CPU   8170.07s WALL (       1 calls)
     forces       :     36.94s CPU      2.67s WALL (       1 calls)
     stress       :    279.94s CPU    112.90s WALL (       1 calls)

     Called by init_run:
     wfcinit      :    205.73s CPU     36.23s WALL (       1 calls)
     potinit      :      9.61s CPU      3.44s WALL (       1 calls)
     hinit0       :      8.45s CPU      4.74s WALL (       1 calls)

     Called by electrons:
     c_bands      :   7956.95s CPU   7597.32s WALL (      13 calls)
     sum_band     :   1293.78s CPU    540.23s WALL (      13 calls)
     v_of_rho     :     34.73s CPU     11.80s WALL (      14 calls)
     newd         :     32.57s CPU     78.68s WALL (      14 calls)
     PAW_pot      :      9.54s CPU      2.46s WALL (      14 calls)
     mix_rho      :      3.67s CPU      1.56s WALL (      13 calls)

     Called by c_bands:
     init_us_2    :     95.41s CPU     48.88s WALL (    1827 calls)
     init_us_2:cp :     95.37s CPU     48.88s WALL (    1827 calls)
     cegterg      :   7854.45s CPU   7560.10s WALL (     819 calls)

     Called by *egterg:
     cdiaghg      :     22.61s CPU     11.24s WALL (    5040 calls)
     h_psi        :   6713.38s CPU   7167.74s WALL (    5103 calls)
     s_psi        :    241.53s CPU    -16.10s WALL (    5103 calls)
     g_psi        :     85.14s CPU     25.46s WALL (    4221 calls)

     Called by h_psi:
     h_psi:calbec :    263.25s CPU    134.80s WALL (    5103 calls)
     vloc_psi     :   6211.20s CPU   6929.09s WALL (    5103 calls)
     add_vuspsi   :    118.23s CPU     21.38s WALL (    5103 calls)

     General routines
     calbec       :    345.13s CPU    163.08s WALL (    6237 calls)
     fft          :     16.87s CPU      5.34s WALL (     205 calls)
     ffts         :      2.25s CPU      0.83s WALL (      27 calls)
     fftw         :   5356.28s CPU   6519.95s WALL (  176338 calls)
     interpolate  :      3.40s CPU      1.13s WALL (      14 calls)

     Parallel routines

     PWSCF        :      2h44m CPU      2h19m WALL


   This run was terminated on:  22:21: 9   5Mar2026            

=------------------------------------------------------------------------------=
   JOB DONE.
=------------------------------------------------------------------------------=
