
     Program PWSCF v.7.2 starts on  5Mar2026 at 22:56:24 

     This program is part of the open-source Quantum ESPRESSO suite
     for quantum simulation of materials; please cite
         "P. Giannozzi et al., J. Phys.:Condens. Matter 21 395502 (2009);
         "P. Giannozzi et al., J. Phys.:Condens. Matter 29 465901 (2017);
         "P. Giannozzi et al., J. Chem. Phys. 152 154105 (2020);
          URL http://www.quantum-espresso.org", 
     in publications or presentations arising from this work. More details at
     http://www.quantum-espresso.org/quote

     Parallel version (MPI & OpenMP), running on       4 processor cores
     Number of MPI processes:                 1
     Threads/MPI process:                     4

     MPI processes distributed on     1 nodes
     1775 MiB available memory on the printing compute node when the environment starts

     Reading input from TFA.in

     Current dimensions of program PWSCF are:
     Max number of different atomic species (ntypx) = 10
     Max number of k-points (npk) =  40000
     Max angular momentum in pseudopotentials (lmaxx) =  4
     file F.UPF: wavefunction(s)  2S 2P renormalized
     file O.UPF: wavefunction(s)  2S 2P renormalized
     file H.UPF: wavefunction(s)  1S renormalized
     file C.UPF: wavefunction(s)  2S 2P renormalized

     IMPORTANT: XC functional enforced from input :
     Exchange-correlation= PBE
                           (   1   4   3   4   0   0   0)
     Any further DFT definition will be discarded
     Please, verify this is what you really want


     Subspace diagonalization in iterative solution of the eigenvalue problem:
     a serial algorithm will be used


     G-vector sticks info
     --------------------
     sticks:   dense  smooth     PW     G-vecs:    dense   smooth      PW
     Sum        9649    4825   1305               713127   251967   35033

     Using Slab Decomposition



     bravais-lattice index     =            0
     lattice parameter (alat)  =      15.8918  a.u.
     unit-cell volume          =    4013.4940 (a.u.)^3
     number of atoms/cell      =            8
     number of atomic types    =            4
     number of electrons       =        42.00
     number of Kohn-Sham states=           25
     kinetic-energy cutoff     =      60.0000  Ry
     charge density cutoff     =     480.0000  Ry
     scf convergence threshold =      1.0E-07
     mixing beta               =       0.7000
     number of iterations used =            8  plain     mixing
     Exchange-correlation= PBE
                           (   1   4   3   4   0   0   0)

     celldm(1)=  15.891841  celldm(2)=   0.000000  celldm(3)=   0.000000
     celldm(4)=   0.000000  celldm(5)=   0.000000  celldm(6)=   0.000000

     crystal axes: (cart. coord. in units of alat)
               a(1) = (   1.000000   0.000000   0.000000 )  
               a(2) = (   0.000000   1.000000   0.000000 )  
               a(3) = (   0.000000   0.000000   1.000000 )  

     reciprocal axes: (cart. coord. in units 2 pi/alat)
               b(1) = (  1.000000  0.000000  0.000000 )  
               b(2) = (  0.000000  1.000000  0.000000 )  
               b(3) = (  0.000000  0.000000  1.000000 )  


     PseudoPot. # 1 for F  read from file:
     ./Pseudopotentials/F.UPF
     MD5 check sum: 24f06cbbe4770390fadad187de636a74
     Pseudo is Projector augmented-wave + core cor, Zval =  7.0
     Generated using 'atomic' code by A. Dal Corso  v.7.2
     Shape of augmentation charge: PSQ
     Using radial grid of 1105 points,  4 beta functions with: 
                l(1) =   0
                l(2) =   0
                l(3) =   1
                l(4) =   1
     Q(r) pseudized with 0 coefficients 


     PseudoPot. # 2 for O  read from file:
     ./Pseudopotentials/O.UPF
     MD5 check sum: c2b90f53c2e0374da637a288a3f2c0d1
     Pseudo is Projector augmented-wave + core cor, Zval =  6.0
     Generated using 'atomic' code by A. Dal Corso  v.7.2
     Shape of augmentation charge: PSQ
     Using radial grid of 1095 points,  4 beta functions with: 
                l(1) =   0
                l(2) =   0
                l(3) =   1
                l(4) =   1
     Q(r) pseudized with 0 coefficients 


     PseudoPot. # 3 for H  read from file:
     ./Pseudopotentials/H.UPF
     MD5 check sum: 2470842f71c224c011b2f4fc5efb07f4
     Pseudo is Projector augmented-wave, Zval =  1.0
     Generated using 'atomic' code by A. Dal Corso  v.7.2
     Shape of augmentation charge: PSQ
     Using radial grid of  929 points,  2 beta functions with: 
                l(1) =   0
                l(2) =   0
     Q(r) pseudized with 0 coefficients 


     PseudoPot. # 4 for C  read from file:
     ./Pseudopotentials/C.UPF
     MD5 check sum: 0dcd7e2f47656ebc741e5a19a8c99607
     Pseudo is Projector augmented-wave + core cor, Zval =  4.0
     Generated using 'atomic' code by A. Dal Corso  v.7.2
     Shape of augmentation charge: PSQ
     Using radial grid of 1073 points,  4 beta functions with: 
                l(1) =   0
                l(2) =   0
                l(3) =   1
                l(4) =   1
     Q(r) pseudized with 0 coefficients 


     atomic species   valence    mass     pseudopotential
        F              7.00    18.99800     F ( 1.00)
        O              6.00    15.99900     O ( 1.00)
        H              1.00     1.00750     H ( 1.00)
        C              4.00    12.01060     C ( 1.00)

     No symmetry found



   Cartesian axes

     site n.     atom                  positions (alat units)
         1           F   tau(   1) = (   0.5150721   0.7027207   0.4866878  )
         2           F   tau(   2) = (   0.3178332   0.5789931   0.3724256  )
         3           F   tau(   3) = (   0.3099731   0.6292095   0.6275744  )
         4           O   tau(   4) = (   0.4291821   0.2972793   0.5664538  )
         5           O   tau(   5) = (   0.6554236   0.4398426   0.5386404  )
         6           C   tau(   6) = (   0.4931685   0.4255494   0.5404835  )
         7           C   tau(   7) = (   0.4070408   0.5827031   0.5071050  )
         8           H   tau(   8) = (   0.6900269   0.5492889   0.5164158  )

     number of k points=    63  Marzari-Vanderbilt smearing, width (Ry)=  0.0050
                       cart. coord. in units 2pi/alat
        k(    1) = (   0.0000000   0.0000000   0.0000000), wk =   0.0160000
        k(    2) = (   0.0000000   0.0000000   0.2000000), wk =   0.0320000
        k(    3) = (   0.0000000   0.0000000   0.4000000), wk =   0.0320000
        k(    4) = (   0.0000000   0.2000000   0.2000000), wk =   0.0320000
        k(    5) = (   0.0000000   0.2000000   0.4000000), wk =   0.0320000
        k(    6) = (   0.0000000   0.4000000   0.4000000), wk =   0.0320000
        k(    7) = (   0.2000000   0.2000000   0.2000000), wk =   0.0320000
        k(    8) = (   0.2000000   0.2000000   0.4000000), wk =   0.0320000
        k(    9) = (   0.2000000   0.4000000   0.4000000), wk =   0.0320000
        k(   10) = (   0.4000000   0.4000000   0.4000000), wk =   0.0320000
        k(   11) = (   0.2000000   0.0000000   0.0000000), wk =   0.0320000
        k(   12) = (   0.0000000   0.2000000   0.0000000), wk =   0.0320000
        k(   13) = (   0.4000000   0.0000000   0.0000000), wk =   0.0320000
        k(   14) = (   0.0000000   0.4000000   0.0000000), wk =   0.0320000
        k(   15) = (   0.0000000  -0.2000000   0.2000000), wk =   0.0320000
        k(   16) = (   0.2000000   0.0000000  -0.2000000), wk =   0.0320000
        k(   17) = (  -0.2000000   0.0000000  -0.2000000), wk =   0.0320000
        k(   18) = (   0.2000000  -0.2000000   0.0000000), wk =   0.0320000
        k(   19) = (  -0.2000000  -0.2000000   0.0000000), wk =   0.0320000
        k(   20) = (   0.0000000  -0.2000000   0.4000000), wk =   0.0320000
        k(   21) = (   0.2000000   0.0000000  -0.4000000), wk =   0.0320000
        k(   22) = (  -0.2000000   0.0000000  -0.4000000), wk =   0.0320000
        k(   23) = (   0.4000000  -0.2000000   0.0000000), wk =   0.0320000
        k(   24) = (  -0.4000000  -0.2000000   0.0000000), wk =   0.0320000
        k(   25) = (   0.0000000   0.4000000   0.2000000), wk =   0.0320000
        k(   26) = (   0.0000000   0.4000000  -0.2000000), wk =   0.0320000
        k(   27) = (   0.2000000   0.4000000   0.0000000), wk =   0.0320000
        k(   28) = (  -0.2000000   0.4000000   0.0000000), wk =   0.0320000
        k(   29) = (   0.4000000   0.0000000   0.2000000), wk =   0.0320000
        k(   30) = (   0.4000000   0.0000000  -0.2000000), wk =   0.0320000
        k(   31) = (   0.0000000  -0.4000000   0.4000000), wk =   0.0320000
        k(   32) = (   0.4000000   0.0000000  -0.4000000), wk =   0.0320000
        k(   33) = (  -0.4000000   0.0000000  -0.4000000), wk =   0.0320000
        k(   34) = (   0.4000000  -0.4000000   0.0000000), wk =   0.0320000
        k(   35) = (  -0.4000000  -0.4000000   0.0000000), wk =   0.0320000
        k(   36) = (  -0.2000000  -0.2000000   0.2000000), wk =   0.0320000
        k(   37) = (  -0.2000000   0.2000000  -0.2000000), wk =   0.0320000
        k(   38) = (   0.2000000  -0.2000000  -0.2000000), wk =   0.0320000
        k(   39) = (  -0.2000000  -0.2000000   0.4000000), wk =   0.0320000
        k(   40) = (  -0.2000000   0.2000000  -0.4000000), wk =   0.0320000
        k(   41) = (   0.2000000  -0.2000000  -0.4000000), wk =   0.0320000
        k(   42) = (   0.4000000  -0.2000000   0.2000000), wk =   0.0320000
        k(   43) = (  -0.4000000  -0.2000000  -0.2000000), wk =   0.0320000
        k(   44) = (   0.4000000   0.2000000  -0.2000000), wk =   0.0320000
        k(   45) = (  -0.4000000   0.2000000   0.2000000), wk =   0.0320000
        k(   46) = (  -0.2000000   0.4000000   0.2000000), wk =   0.0320000
        k(   47) = (  -0.2000000  -0.4000000  -0.2000000), wk =   0.0320000
        k(   48) = (   0.2000000   0.4000000  -0.2000000), wk =   0.0320000
        k(   49) = (   0.2000000  -0.4000000   0.2000000), wk =   0.0320000
        k(   50) = (  -0.2000000  -0.4000000   0.4000000), wk =   0.0320000
        k(   51) = (  -0.2000000   0.4000000  -0.4000000), wk =   0.0320000
        k(   52) = (   0.2000000  -0.4000000  -0.4000000), wk =   0.0320000
        k(   53) = (   0.4000000   0.2000000  -0.4000000), wk =   0.0320000
        k(   54) = (  -0.4000000  -0.2000000  -0.4000000), wk =   0.0320000
        k(   55) = (   0.4000000  -0.2000000   0.4000000), wk =   0.0320000
        k(   56) = (  -0.4000000   0.2000000   0.4000000), wk =   0.0320000
        k(   57) = (   0.4000000  -0.4000000   0.2000000), wk =   0.0320000
        k(   58) = (  -0.4000000  -0.4000000  -0.2000000), wk =   0.0320000
        k(   59) = (   0.4000000   0.4000000  -0.2000000), wk =   0.0320000
        k(   60) = (  -0.4000000   0.4000000   0.2000000), wk =   0.0320000
        k(   61) = (  -0.4000000  -0.4000000   0.4000000), wk =   0.0320000
        k(   62) = (  -0.4000000   0.4000000  -0.4000000), wk =   0.0320000
        k(   63) = (   0.4000000  -0.4000000  -0.4000000), wk =   0.0320000

     Dense  grid:   713127 G-vectors     FFT dimensions: ( 120, 120, 120)

     Smooth grid:   251967 G-vectors     FFT dimensions: (  80,  80,  80)

     Estimated max dynamical RAM per process >       1.78 GB

     Initial potential from superposition of free atoms

     starting charge      41.9999, renormalised to      42.0000

     negative rho (up, down):  5.378E-04 0.000E+00
     Starting wfcs are   29 randomized atomic wfcs
     Checking if some PAW data can be deallocated... 

     total cpu time spent up to now is       41.2 secs

     per-process dynamical memory:  1098.3 Mb

     Self-consistent Calculation

     iteration #  1     ecut=    60.00 Ry     beta= 0.70
     Davidson diagonalization with overlap
     ethr =  1.00E-02,  avg # of iterations =  5.6

     negative rho (up, down):  5.818E-04 0.000E+00

     total cpu time spent up to now is      228.8 secs

     total energy              =    -298.97422383 Ry
     estimated scf accuracy    <       0.91204793 Ry

     iteration #  2     ecut=    60.00 Ry     beta= 0.70
     Davidson diagonalization with overlap
     ethr =  2.17E-03,  avg # of iterations =  5.6

     negative rho (up, down):  5.714E-04 0.000E+00

     total cpu time spent up to now is      420.4 secs

     total energy              =    -299.13938006 Ry
     estimated scf accuracy    <       1.52432723 Ry

     iteration #  3     ecut=    60.00 Ry     beta= 0.70
     Davidson diagonalization with overlap
     ethr =  2.17E-03,  avg # of iterations =  3.8

     negative rho (up, down):  5.998E-04 0.000E+00

     total cpu time spent up to now is      541.5 secs

     total energy              =    -299.40914083 Ry
     estimated scf accuracy    <       0.11609102 Ry

     iteration #  4     ecut=    60.00 Ry     beta= 0.70
     Davidson diagonalization with overlap
     ethr =  2.76E-04,  avg # of iterations =  6.6

     negative rho (up, down):  8.520E-04 0.000E+00

     total cpu time spent up to now is      708.4 secs

     total energy              =    -299.46416472 Ry
     estimated scf accuracy    <       0.00765401 Ry

     iteration #  5     ecut=    60.00 Ry     beta= 0.70
     Davidson diagonalization with overlap
     c_bands:  1 eigenvalues not converged
     c_bands:  2 eigenvalues not converged
     ethr =  1.82E-05,  avg # of iterations = 13.3

     negative rho (up, down):  9.478E-04 0.000E+00

     total cpu time spent up to now is     1034.6 secs

     total energy              =    -299.46641565 Ry
     estimated scf accuracy    <       0.00237566 Ry

     iteration #  6     ecut=    60.00 Ry     beta= 0.70
     Davidson diagonalization with overlap
     ethr =  5.66E-06,  avg # of iterations =  5.4

     negative rho (up, down):  9.898E-04 0.000E+00

     total cpu time spent up to now is     1189.7 secs

     total energy              =    -299.46685330 Ry
     estimated scf accuracy    <       0.00039200 Ry

     iteration #  7     ecut=    60.00 Ry     beta= 0.70
     Davidson diagonalization with overlap
     ethr =  9.33E-07,  avg # of iterations =  5.9

     negative rho (up, down):  1.007E-03 0.000E+00

     total cpu time spent up to now is     1398.4 secs

     total energy              =    -299.46694261 Ry
     estimated scf accuracy    <       0.00001587 Ry

     iteration #  8     ecut=    60.00 Ry     beta= 0.70
     Davidson diagonalization with overlap
     ethr =  3.78E-08,  avg # of iterations =  7.0

     negative rho (up, down):  1.012E-03 0.000E+00

     total cpu time spent up to now is     1643.4 secs

     total energy              =    -299.46696562 Ry
     estimated scf accuracy    <       0.00002084 Ry

     iteration #  9     ecut=    60.00 Ry     beta= 0.70
     Davidson diagonalization with overlap
     ethr =  3.78E-08,  avg # of iterations =  1.6

     negative rho (up, down):  1.013E-03 0.000E+00

     total cpu time spent up to now is     1826.9 secs

     total energy              =    -299.46696456 Ry
     estimated scf accuracy    <       0.00000606 Ry

     iteration # 10     ecut=    60.00 Ry     beta= 0.70
     Davidson diagonalization with overlap
     ethr =  1.44E-08,  avg # of iterations =  4.7

     negative rho (up, down):  1.014E-03 0.000E+00

     total cpu time spent up to now is     1983.3 secs

     total energy              =    -299.46696689 Ry
     estimated scf accuracy    <       0.00000063 Ry

     iteration # 11     ecut=    60.00 Ry     beta= 0.70
     Davidson diagonalization with overlap
     ethr =  1.50E-09,  avg # of iterations =  3.2

     negative rho (up, down):  1.014E-03 0.000E+00

     total cpu time spent up to now is     2168.5 secs

     total energy              =    -299.46696681 Ry
     estimated scf accuracy    <       0.00000060 Ry

     iteration # 12     ecut=    60.00 Ry     beta= 0.70
     Davidson diagonalization with overlap
     ethr =  1.43E-09,  avg # of iterations =  1.8

     negative rho (up, down):  1.014E-03 0.000E+00

     total cpu time spent up to now is     2265.5 secs

     End of self-consistent calculation

          k = 0.0000 0.0000 0.0000 ( 31439 PWs)   bands (ev):

   -32.6864 -30.4641 -30.3308 -27.3365 -25.3426 -18.2557 -15.4802 -14.8744
   -14.2158 -14.1637 -10.9987 -10.8926 -10.7157 -10.6375 -10.3418  -9.9800
    -9.5901  -9.2635  -8.8087  -7.5543  -6.4739  -1.8208  -0.1796   1.2089
     1.8517

          k = 0.0000 0.0000 0.2000 ( 31507 PWs)   bands (ev):

   -32.6864 -30.4641 -30.3308 -27.3365 -25.3426 -18.2557 -15.4802 -14.8744
   -14.2159 -14.1637 -10.9987 -10.8927 -10.7157 -10.6377 -10.3418  -9.9800
    -9.5902  -9.2636  -8.8087  -7.5544  -6.4739  -1.8213  -0.1148   1.1381
     1.5930

          k = 0.0000 0.0000 0.4000 ( 31559 PWs)   bands (ev):

   -32.6864 -30.4642 -30.3308 -27.3365 -25.3427 -18.2557 -15.4802 -14.8744
   -14.2159 -14.1637 -10.9987 -10.8927 -10.7157 -10.6379 -10.3419  -9.9800
    -9.5904  -9.2637  -8.8087  -7.5544  -6.4739  -1.8221   0.0284   0.8750
     1.4874

          k = 0.0000 0.2000 0.2000 ( 31502 PWs)   bands (ev):

   -32.6864 -30.4641 -30.3308 -27.3365 -25.3426 -18.2557 -15.4802 -14.8745
   -14.2159 -14.1638 -10.9997 -10.8927 -10.7160 -10.6377 -10.3415  -9.9791
    -9.5902  -9.2636  -8.8085  -7.5544  -6.4726  -1.8215  -0.0601   1.1416
     1.5454

          k = 0.0000 0.2000 0.4000 ( 31517 PWs)   bands (ev):

   -32.6864 -30.4641 -30.3308 -27.3365 -25.3426 -18.2557 -15.4802 -14.8745
   -14.2159 -14.1638 -10.9997 -10.8927 -10.7159 -10.6379 -10.3415  -9.9791
    -9.5903  -9.2637  -8.8085  -7.5544  -6.4726  -1.8224   0.0767   0.9460
     1.4555

          k = 0.0000 0.4000 0.4000 ( 31496 PWs)   bands (ev):

   -32.6864 -30.4641 -30.3308 -27.3365 -25.3426 -18.2555 -15.4802 -14.8745
   -14.2159 -14.1639 -11.0013 -10.8926 -10.7163 -10.6378 -10.3409  -9.9778
    -9.5903  -9.2637  -8.8082  -7.5544  -6.4705  -1.8228   0.1741   1.1123
     1.2386

          k = 0.2000 0.2000 0.2000 ( 31529 PWs)   bands (ev):

   -32.6864 -30.4641 -30.3308 -27.3365 -25.3426 -18.2556 -15.4803 -14.8744
   -14.2159 -14.1638 -10.9999 -10.8927 -10.7158 -10.6376 -10.3413  -9.9794
    -9.5902  -9.2636  -8.8085  -7.5545  -6.4728  -1.8222   0.0067   1.0948
     1.5758

          k = 0.2000 0.2000 0.4000 ( 31481 PWs)   bands (ev):

   -32.6864 -30.4641 -30.3308 -27.3365 -25.3426 -18.2556 -15.4803 -14.8744
   -14.2159 -14.1638 -10.9999 -10.8927 -10.7158 -10.6378 -10.3412  -9.9794
    -9.5903  -9.2636  -8.8085  -7.5545  -6.4728  -1.8232   0.1361   1.0130
     1.4380

          k = 0.2000 0.4000 0.4000 ( 31501 PWs)   bands (ev):

   -32.6864 -30.4641 -30.3308 -27.3365 -25.3426 -18.2555 -15.4803 -14.8744
   -14.2159 -14.1639 -11.0015 -10.8926 -10.7161 -10.6378 -10.3407  -9.9780
    -9.5904  -9.2636  -8.8082  -7.5545  -6.4707  -1.8236   0.2253   1.1792
     1.3101

          k = 0.4000 0.4000 0.4000 ( 31456 PWs)   bands (ev):

   -32.6864 -30.4641 -30.3308 -27.3365 -25.3426 -18.2555 -15.4805 -14.8743
   -14.2159 -14.1639 -11.0019 -10.8926 -10.7158 -10.6377 -10.3402  -9.9784
    -9.5904  -9.2636  -8.8083  -7.5546  -6.4710  -1.8250   0.3234   1.2941
     1.4862

          k = 0.2000 0.0000 0.0000 ( 31507 PWs)   bands (ev):

   -32.6864 -30.4641 -30.3308 -27.3365 -25.3426 -18.2557 -15.4803 -14.8744
   -14.2159 -14.1637 -10.9989 -10.8927 -10.7156 -10.6375 -10.3416  -9.9802
    -9.5902  -9.2635  -8.8087  -7.5544  -6.4740  -1.8215  -0.1105   1.0519
     1.8576

          k = 0.0000 0.2000 0.0000 ( 31507 PWs)   bands (ev):

   -32.6864 -30.4641 -30.3308 -27.3365 -25.3426 -18.2557 -15.4802 -14.8745
   -14.2159 -14.1638 -10.9997 -10.8926 -10.7160 -10.6375 -10.3415  -9.9791
    -9.5901  -9.2635  -8.8085  -7.5544  -6.4726  -1.8209  -0.1240   1.1593
     1.5219

          k = 0.4000 0.0000 0.0000 ( 31559 PWs)   bands (ev):

   -32.6864 -30.4641 -30.3308 -27.3365 -25.3427 -18.2557 -15.4804 -14.8743
   -14.2159 -14.1638 -10.9993 -10.8927 -10.7153 -10.6374 -10.3412  -9.9806
    -9.5902  -9.2635  -8.8087  -7.5546  -6.4743  -1.8228   0.0515   0.7423
     1.8176

          k = 0.0000 0.4000 0.0000 ( 31559 PWs)   bands (ev):

   -32.6864 -30.4641 -30.3308 -27.3365 -25.3426 -18.2556 -15.4803 -14.8745
   -14.2159 -14.1640 -11.0014 -10.8926 -10.7164 -10.6375 -10.3410  -9.9778
    -9.5902  -9.2635  -8.8082  -7.5544  -6.4706  -1.8212  -0.0034   0.9063
     1.3849

          k = 0.0000-0.2000 0.2000 ( 31502 PWs)   bands (ev):

   -32.6864 -30.4641 -30.3308 -27.3365 -25.3426 -18.2557 -15.4802 -14.8745
   -14.2159 -14.1638 -10.9997 -10.8927 -10.7160 -10.6377 -10.3415  -9.9791
    -9.5902  -9.2636  -8.8085  -7.5544  -6.4726  -1.8215  -0.0617   1.1328
     1.5523

          k = 0.2000 0.0000-0.2000 ( 31502 PWs)   bands (ev):

   -32.6864 -30.4641 -30.3308 -27.3365 -25.3426 -18.2557 -15.4803 -14.8744
   -14.2159 -14.1637 -10.9989 -10.8927 -10.7156 -10.6376 -10.3416  -9.9802
    -9.5902  -9.2635  -8.8087  -7.5545  -6.4740  -1.8222  -0.0467   1.0671
     1.5549

          k =-0.2000 0.0000-0.2000 ( 31502 PWs)   bands (ev):

   -32.6864 -30.4641 -30.3308 -27.3365 -25.3426 -18.2557 -15.4803 -14.8744
   -14.2159 -14.1637 -10.9989 -10.8927 -10.7156 -10.6376 -10.3416  -9.9802
    -9.5902  -9.2635  -8.8087  -7.5545  -6.4740  -1.8221  -0.0488   1.0620
     1.5836

          k = 0.2000-0.2000 0.0000 ( 31502 PWs)   bands (ev):

   -32.6864 -30.4641 -30.3308 -27.3365 -25.3426 -18.2556 -15.4803 -14.8744
   -14.2159 -14.1638 -11.0000 -10.8926 -10.7158 -10.6375 -10.3413  -9.9794
    -9.5902  -9.2635  -8.8085  -7.5544  -6.4728  -1.8217  -0.0604   1.0610
     1.5372

          k =-0.2000-0.2000 0.0000 ( 31502 PWs)   bands (ev):

   -32.6864 -30.4641 -30.3308 -27.3365 -25.3426 -18.2556 -15.4803 -14.8744
   -14.2159 -14.1638 -11.0000 -10.8926 -10.7158 -10.6375 -10.3413  -9.9794
    -9.5902  -9.2635  -8.8085  -7.5544  -6.4728  -1.8217  -0.0535   1.0731
     1.5110

          k = 0.0000-0.2000 0.4000 ( 31517 PWs)   bands (ev):

   -32.6864 -30.4641 -30.3308 -27.3365 -25.3426 -18.2557 -15.4802 -14.8745
   -14.2159 -14.1638 -10.9997 -10.8927 -10.7159 -10.6379 -10.3415  -9.9791
    -9.5903  -9.2637  -8.8085  -7.5544  -6.4726  -1.8224   0.0756   0.9428
     1.4518

          k = 0.2000 0.0000-0.4000 ( 31517 PWs)   bands (ev):

   -32.6864 -30.4641 -30.3308 -27.3365 -25.3427 -18.2557 -15.4802 -14.8744
   -14.2159 -14.1637 -10.9989 -10.8927 -10.7156 -10.6378 -10.3416  -9.9802
    -9.5904  -9.2636  -8.8087  -7.5545  -6.4740  -1.8230   0.0895   0.9448
     1.3809

          k =-0.2000 0.0000-0.4000 ( 31517 PWs)   bands (ev):

   -32.6864 -30.4641 -30.3308 -27.3365 -25.3427 -18.2557 -15.4802 -14.8744
   -14.2159 -14.1637 -10.9989 -10.8927 -10.7156 -10.6378 -10.3416  -9.9802
    -9.5904  -9.2636  -8.8087  -7.5545  -6.4740  -1.8230   0.0876   0.9431
     1.3919

          k = 0.4000-0.2000 0.0000 ( 31517 PWs)   bands (ev):

   -32.6864 -30.4641 -30.3308 -27.3365 -25.3426 -18.2556 -15.4805 -14.8743
   -14.2159 -14.1639 -11.0003 -10.8926 -10.7155 -10.6374 -10.3408  -9.9798
    -9.5902  -9.2634  -8.8085  -7.5546  -6.4730  -1.8230   0.0939   0.8048
     1.6281

          k =-0.4000-0.2000 0.0000 ( 31517 PWs)   bands (ev):

   -32.6864 -30.4641 -30.3308 -27.3365 -25.3426 -18.2556 -15.4805 -14.8743
   -14.2159 -14.1639 -11.0003 -10.8926 -10.7155 -10.6374 -10.3408  -9.9798
    -9.5902  -9.2634  -8.8086  -7.5546  -6.4730  -1.8229   0.0999   0.8087
     1.6169

          k = 0.0000 0.4000 0.2000 ( 31517 PWs)   bands (ev):

   -32.6864 -30.4641 -30.3308 -27.3365 -25.3426 -18.2555 -15.4803 -14.8745
   -14.2159 -14.1640 -11.0013 -10.8926 -10.7163 -10.6376 -10.3409  -9.9778
    -9.5902  -9.2636  -8.8082  -7.5544  -6.4706  -1.8218   0.0549   0.9794
     1.3599

          k = 0.0000 0.4000-0.2000 ( 31517 PWs)   bands (ev):

   -32.6864 -30.4641 -30.3308 -27.3365 -25.3426 -18.2555 -15.4803 -14.8745
   -14.2159 -14.1640 -11.0013 -10.8926 -10.7163 -10.6376 -10.3409  -9.9778
    -9.5902  -9.2636  -8.8082  -7.5544  -6.4706  -1.8218   0.0536   0.9768
     1.3651

          k = 0.2000 0.4000 0.0000 ( 31517 PWs)   bands (ev):

   -32.6864 -30.4641 -30.3308 -27.3365 -25.3426 -18.2555 -15.4804 -14.8744
   -14.2159 -14.1640 -11.0016 -10.8926 -10.7162 -10.6375 -10.3407  -9.9780
    -9.5902  -9.2635  -8.8082  -7.5544  -6.4707  -1.8219   0.0602   0.9687
     1.2832

          k =-0.2000 0.4000 0.0000 ( 31517 PWs)   bands (ev):

   -32.6864 -30.4641 -30.3308 -27.3365 -25.3426 -18.2555 -15.4804 -14.8744
   -14.2159 -14.1640 -11.0016 -10.8926 -10.7162 -10.6375 -10.3407  -9.9780
    -9.5902  -9.2635  -8.8082  -7.5544  -6.4707  -1.8220   0.0541   0.9728
     1.2814

          k = 0.4000 0.0000 0.2000 ( 31517 PWs)   bands (ev):

   -32.6864 -30.4641 -30.3308 -27.3365 -25.3426 -18.2557 -15.4804 -14.8743
   -14.2159 -14.1637 -10.9993 -10.8927 -10.7153 -10.6375 -10.3412  -9.9806
    -9.5903  -9.2635  -8.8087  -7.5546  -6.4743  -1.8234   0.1048   0.8212
     1.6374

          k = 0.4000 0.0000-0.2000 ( 31517 PWs)   bands (ev):

   -32.6864 -30.4641 -30.3308 -27.3365 -25.3426 -18.2557 -15.4804 -14.8743
   -14.2159 -14.1637 -10.9993 -10.8927 -10.7153 -10.6375 -10.3412  -9.9806
    -9.5903  -9.2635  -8.8087  -7.5546  -6.4743  -1.8235   0.1068   0.8210
     1.6327

          k = 0.0000-0.4000 0.4000 ( 31496 PWs)   bands (ev):

   -32.6864 -30.4641 -30.3308 -27.3365 -25.3426 -18.2555 -15.4802 -14.8745
   -14.2159 -14.1639 -11.0013 -10.8926 -10.7163 -10.6378 -10.3409  -9.9778
    -9.5903  -9.2637  -8.8082  -7.5544  -6.4705  -1.8228   0.1732   1.1011
     1.2468

          k = 0.4000 0.0000-0.4000 ( 31496 PWs)   bands (ev):

   -32.6864 -30.4641 -30.3308 -27.3365 -25.3426 -18.2556 -15.4804 -14.8743
   -14.2159 -14.1637 -10.9993 -10.8927 -10.7153 -10.6377 -10.3412  -9.9806
    -9.5904  -9.2636  -8.8087  -7.5546  -6.4743  -1.8244   0.2173   1.0335
     1.2677

          k =-0.4000 0.0000-0.4000 ( 31496 PWs)   bands (ev):

   -32.6864 -30.4641 -30.3308 -27.3365 -25.3426 -18.2556 -15.4804 -14.8743
   -14.2159 -14.1637 -10.9993 -10.8927 -10.7153 -10.6377 -10.3412  -9.9806
    -9.5904  -9.2636  -8.8087  -7.5546  -6.4743  -1.8244   0.2157   1.0267
     1.2840

          k = 0.4000-0.4000 0.0000 ( 31496 PWs)   bands (ev):

   -32.6864 -30.4641 -30.3308 -27.3365 -25.3426 -18.2555 -15.4805 -14.8743
   -14.2159 -14.1640 -11.0020 -10.8925 -10.7159 -10.6374 -10.3403  -9.9784
    -9.5902  -9.2634  -8.8083  -7.5545  -6.4710  -1.8232   0.1861   0.9700
     1.2511

          k =-0.4000-0.4000 0.0000 ( 31496 PWs)   bands (ev):

   -32.6864 -30.4641 -30.3308 -27.3365 -25.3426 -18.2555 -15.4805 -14.8743
   -14.2159 -14.1640 -11.0020 -10.8925 -10.7159 -10.6374 -10.3403  -9.9784
    -9.5902  -9.2634  -8.8083  -7.5545  -6.4710  -1.8232   0.1908   0.9822
     1.2291

          k =-0.2000-0.2000 0.2000 ( 31529 PWs)   bands (ev):

   -32.6864 -30.4641 -30.3308 -27.3365 -25.3427 -18.2556 -15.4803 -14.8744
   -14.2159 -14.1638 -10.9999 -10.8927 -10.7158 -10.6376 -10.3413  -9.9794
    -9.5903  -9.2636  -8.8085  -7.5545  -6.4728  -1.8223   0.0075   1.0891
     1.5797

          k =-0.2000 0.2000-0.2000 ( 31529 PWs)   bands (ev):

   -32.6864 -30.4641 -30.3308 -27.3365 -25.3426 -18.2556 -15.4803 -14.8744
   -14.2159 -14.1638 -10.9999 -10.8926 -10.7158 -10.6376 -10.3412  -9.9794
    -9.5902  -9.2636  -8.8085  -7.5545  -6.4728  -1.8223  -0.0015   1.0743
     1.5991

          k = 0.2000-0.2000-0.2000 ( 31529 PWs)   bands (ev):

   -32.6864 -30.4641 -30.3308 -27.3365 -25.3426 -18.2556 -15.4803 -14.8744
   -14.2159 -14.1638 -10.9999 -10.8926 -10.7158 -10.6376 -10.3413  -9.9794
    -9.5902  -9.2635  -8.8085  -7.5545  -6.4728  -1.8224   0.0024   1.0859
     1.5909

          k =-0.2000-0.2000 0.4000 ( 31481 PWs)   bands (ev):

   -32.6864 -30.4641 -30.3308 -27.3365 -25.3426 -18.2556 -15.4803 -14.8744
   -14.2159 -14.1638 -10.9999 -10.8927 -10.7158 -10.6378 -10.3412  -9.9794
    -9.5904  -9.2636  -8.8085  -7.5545  -6.4728  -1.8232   0.1369   1.0096
     1.4277

          k =-0.2000 0.2000-0.4000 ( 31481 PWs)   bands (ev):

   -32.6864 -30.4641 -30.3308 -27.3365 -25.3426 -18.2556 -15.4803 -14.8744
   -14.2159 -14.1638 -10.9999 -10.8927 -10.7158 -10.6378 -10.3412  -9.9794
    -9.5904  -9.2636  -8.8085  -7.5545  -6.4727  -1.8233   0.1288   1.0080
     1.3803

          k = 0.2000-0.2000-0.4000 ( 31481 PWs)   bands (ev):

   -32.6864 -30.4641 -30.3308 -27.3365 -25.3426 -18.2556 -15.4803 -14.8744
   -14.2159 -14.1638 -10.9999 -10.8927 -10.7158 -10.6378 -10.3412  -9.9794
    -9.5904  -9.2636  -8.8085  -7.5545  -6.4727  -1.8233   0.1320   1.0143
     1.3717

          k = 0.4000-0.2000 0.2000 ( 31481 PWs)   bands (ev):

   -32.6864 -30.4641 -30.3308 -27.3365 -25.3426 -18.2556 -15.4804 -14.8743
   -14.2159 -14.1638 -11.0003 -10.8926 -10.7155 -10.6375 -10.3408  -9.9797
    -9.5903  -9.2635  -8.8085  -7.5546  -6.4730  -1.8236   0.1443   0.8789
     1.6372

          k =-0.4000-0.2000-0.2000 ( 31481 PWs)   bands (ev):

   -32.6864 -30.4641 -30.3308 -27.3365 -25.3426 -18.2556 -15.4804 -14.8743
   -14.2159 -14.1638 -11.0003 -10.8926 -10.7155 -10.6375 -10.3408  -9.9797
    -9.5903  -9.2635  -8.8086  -7.5546  -6.4730  -1.8236   0.1511   0.8925
     1.6149

          k = 0.4000 0.2000-0.2000 ( 31481 PWs)   bands (ev):

   -32.6864 -30.4641 -30.3308 -27.3365 -25.3426 -18.2556 -15.4804 -14.8743
   -14.2159 -14.1638 -11.0003 -10.8926 -10.7155 -10.6375 -10.3408  -9.9797
    -9.5903  -9.2635  -8.8085  -7.5546  -6.4730  -1.8236   0.1519   0.8846
     1.6134

          k =-0.4000 0.2000 0.2000 ( 31481 PWs)   bands (ev):

   -32.6864 -30.4641 -30.3308 -27.3365 -25.3426 -18.2556 -15.4804 -14.8743
   -14.2159 -14.1638 -11.0003 -10.8926 -10.7155 -10.6375 -10.3408  -9.9797
    -9.5903  -9.2635  -8.8085  -7.5546  -6.4730  -1.8237   0.1479   0.8853
     1.6283

          k =-0.2000 0.4000 0.2000 ( 31481 PWs)   bands (ev):

   -32.6864 -30.4641 -30.3308 -27.3365 -25.3426 -18.2555 -15.4803 -14.8744
   -14.2159 -14.1640 -11.0016 -10.8926 -10.7162 -10.6376 -10.3407  -9.9780
    -9.5902  -9.2635  -8.8082  -7.5545  -6.4707  -1.8227   0.1113   1.0419
     1.3147

          k =-0.2000-0.4000-0.2000 ( 31481 PWs)   bands (ev):

   -32.6864 -30.4641 -30.3308 -27.3365 -25.3426 -18.2555 -15.4804 -14.8744
   -14.2159 -14.1640 -11.0016 -10.8926 -10.7162 -10.6376 -10.3407  -9.9780
    -9.5902  -9.2635  -8.8082  -7.5544  -6.4707  -1.8225   0.1141   1.0421
     1.3092

          k = 0.2000 0.4000-0.2000 ( 31481 PWs)   bands (ev):

   -32.6864 -30.4641 -30.3308 -27.3365 -25.3426 -18.2555 -15.4803 -14.8744
   -14.2159 -14.1640 -11.0016 -10.8926 -10.7162 -10.6376 -10.3407  -9.9780
    -9.5902  -9.2635  -8.8082  -7.5544  -6.4707  -1.8226   0.1157   1.0373
     1.3131

          k = 0.2000-0.4000 0.2000 ( 31481 PWs)   bands (ev):

   -32.6864 -30.4641 -30.3308 -27.3365 -25.3426 -18.2555 -15.4804 -14.8744
   -14.2159 -14.1640 -11.0016 -10.8926 -10.7162 -10.6376 -10.3407  -9.9780
    -9.5902  -9.2635  -8.8082  -7.5545  -6.4707  -1.8226   0.1072   1.0342
     1.3271

          k =-0.2000-0.4000 0.4000 ( 31501 PWs)   bands (ev):

   -32.6864 -30.4641 -30.3308 -27.3365 -25.3426 -18.2555 -15.4803 -14.8744
   -14.2159 -14.1639 -11.0015 -10.8926 -10.7161 -10.6378 -10.3407  -9.9780
    -9.5904  -9.2636  -8.8082  -7.5545  -6.4707  -1.8237   0.2268   1.1662
     1.3214

          k =-0.2000 0.4000-0.4000 ( 31501 PWs)   bands (ev):

   -32.6864 -30.4641 -30.3308 -27.3365 -25.3426 -18.2555 -15.4803 -14.8744
   -14.2159 -14.1639 -11.0015 -10.8926 -10.7161 -10.6378 -10.3407  -9.9780
    -9.5904  -9.2636  -8.8082  -7.5545  -6.4707  -1.8237   0.2196   1.1559
     1.3190

          k = 0.2000-0.4000-0.4000 ( 31501 PWs)   bands (ev):

   -32.6864 -30.4641 -30.3308 -27.3365 -25.3426 -18.2555 -15.4803 -14.8744
   -14.2159 -14.1639 -11.0015 -10.8926 -10.7161 -10.6378 -10.3407  -9.9780
    -9.5904  -9.2636  -8.8082  -7.5545  -6.4707  -1.8237   0.2228   1.1712
     1.3119

          k = 0.4000 0.2000-0.4000 ( 31501 PWs)   bands (ev):

   -32.6864 -30.4641 -30.3308 -27.3365 -25.3426 -18.2556 -15.4804 -14.8743
   -14.2159 -14.1638 -11.0003 -10.8927 -10.7155 -10.6377 -10.3408  -9.9797
    -9.5904  -9.2636  -8.8086  -7.5546  -6.4730  -1.8246   0.2554   1.0978
     1.3476

          k =-0.4000-0.2000-0.4000 ( 31501 PWs)   bands (ev):

   -32.6864 -30.4641 -30.3308 -27.3365 -25.3426 -18.2556 -15.4804 -14.8743
   -14.2159 -14.1638 -11.0003 -10.8927 -10.7155 -10.6377 -10.3408  -9.9797
    -9.5904  -9.2636  -8.8086  -7.5546  -6.4730  -1.8246   0.2548   1.1048
     1.3534

          k = 0.4000-0.2000 0.4000 ( 31501 PWs)   bands (ev):

   -32.6864 -30.4641 -30.3308 -27.3365 -25.3426 -18.2556 -15.4804 -14.8743
   -14.2159 -14.1638 -11.0003 -10.8927 -10.7155 -10.6377 -10.3408  -9.9797
    -9.5904  -9.2636  -8.8085  -7.5546  -6.4730  -1.8247   0.2493   1.0797
     1.3578

          k =-0.4000 0.2000 0.4000 ( 31501 PWs)   bands (ev):

   -32.6864 -30.4641 -30.3308 -27.3365 -25.3426 -18.2556 -15.4804 -14.8743
   -14.2159 -14.1638 -11.0003 -10.8927 -10.7155 -10.6377 -10.3408  -9.9797
    -9.5904  -9.2636  -8.8086  -7.5546  -6.4730  -1.8247   0.2520   1.0976
     1.3329

          k = 0.4000-0.4000 0.2000 ( 31501 PWs)   bands (ev):

   -32.6864 -30.4641 -30.3308 -27.3365 -25.3426 -18.2555 -15.4805 -14.8743
   -14.2159 -14.1640 -11.0019 -10.8926 -10.7159 -10.6375 -10.3403  -9.9784
    -9.5903  -9.2635  -8.8083  -7.5546  -6.4710  -1.8239   0.2303   1.0407
     1.3414

          k =-0.4000-0.4000-0.2000 ( 31501 PWs)   bands (ev):

   -32.6864 -30.4641 -30.3308 -27.3365 -25.3426 -18.2555 -15.4805 -14.8743
   -14.2159 -14.1640 -11.0019 -10.8926 -10.7159 -10.6375 -10.3403  -9.9784
    -9.5903  -9.2635  -8.8083  -7.5546  -6.4710  -1.8239   0.2356   1.0719
     1.2996

          k = 0.4000 0.4000-0.2000 ( 31501 PWs)   bands (ev):

   -32.6864 -30.4641 -30.3308 -27.3365 -25.3426 -18.2555 -15.4805 -14.8743
   -14.2159 -14.1640 -11.0020 -10.8926 -10.7159 -10.6375 -10.3403  -9.9784
    -9.5903  -9.2635  -8.8083  -7.5546  -6.4710  -1.8239   0.2370   1.0570
     1.3103

          k =-0.4000 0.4000 0.2000 ( 31501 PWs)   bands (ev):

   -32.6864 -30.4641 -30.3308 -27.3365 -25.3426 -18.2555 -15.4805 -14.8743
   -14.2159 -14.1640 -11.0019 -10.8926 -10.7159 -10.6375 -10.3403  -9.9784
    -9.5903  -9.2635  -8.8083  -7.5546  -6.4710  -1.8239   0.2338   1.0520
     1.3262

          k =-0.4000-0.4000 0.4000 ( 31456 PWs)   bands (ev):

   -32.6864 -30.4641 -30.3308 -27.3365 -25.3426 -18.2555 -15.4805 -14.8743
   -14.2159 -14.1639 -11.0019 -10.8926 -10.7159 -10.6377 -10.3402  -9.9784
    -9.5904  -9.2636  -8.8083  -7.5546  -6.4710  -1.8250   0.3246   1.2763
     1.4937

          k =-0.4000 0.4000-0.4000 ( 31456 PWs)   bands (ev):

   -32.6864 -30.4641 -30.3308 -27.3365 -25.3426 -18.2555 -15.4805 -14.8743
   -14.2159 -14.1639 -11.0019 -10.8926 -10.7158 -10.6377 -10.3402  -9.9784
    -9.5904  -9.2636  -8.8083  -7.5546  -6.4710  -1.8250   0.3195   1.2388
     1.5107

          k = 0.4000-0.4000-0.4000 ( 31456 PWs)   bands (ev):

   -32.6864 -30.4641 -30.3308 -27.3365 -25.3426 -18.2554 -15.4805 -14.8743
   -14.2159 -14.1639 -11.0019 -10.8926 -10.7158 -10.6377 -10.3402  -9.9784
    -9.5904  -9.2636  -8.8083  -7.5546  -6.4710  -1.8251   0.3221   1.2613
     1.5026

     the Fermi energy is    -4.1942 ev

!    total energy              =    -299.46696682 Ry
     total all-electron energy =     -1053.927100 Ry
     estimated scf accuracy    <       0.00000007 Ry
     smearing contrib. (-TS)   =       0.00000000 Ry
     internal energy E=F+TS    =    -299.46696682 Ry

     The total energy is F=E-TS. E is the sum of the following terms:
     one-electron contribution =    -523.20047558 Ry
     hartree contribution      =     271.14700868 Ry
     xc contribution           =     -53.25086375 Ry
     ewald contribution        =      70.89205344 Ry
     one-center paw contrib.   =     -65.05468961 Ry

     convergence has been achieved in  12 iterations

     negative rho (up, down):  1.014E-03 0.000E+00

     Forces acting on atoms (cartesian axes, Ry/au):

     atom    1 type  1   force =     0.00775721    0.00715199   -0.00106529
     atom    2 type  1   force =     0.00783843   -0.01561377    0.00829554
     atom    3 type  1   force =     0.00893775   -0.01782235   -0.00215610
     atom    4 type  2   force =     0.01289151    0.06788901   -0.01380001
     atom    5 type  2   force =    -0.01960045   -0.00435175    0.00058775
     atom    6 type  4   force =     0.02929190   -0.07362237    0.01498431
     atom    7 type  4   force =    -0.03785616    0.04285186   -0.00837206
     atom    8 type  3   force =    -0.00926018   -0.00648262    0.00152586
     The non-local contrib.  to forces
     atom    1 type  1   force =    -1.72833306   -2.29759091    0.39054963
     atom    2 type  1   force =     1.72544680    0.01001155    2.53687348
     atom    3 type  1   force =     1.87531932   -0.93635273   -2.25177612
     atom    4 type  2   force =     1.18216384    2.45043723   -0.49671927
     atom    5 type  2   force =    -1.53421930    1.81922474   -0.38449983
     atom    6 type  4   force =     0.30946037    0.01404073   -0.00141551
     atom    7 type  4   force =    -0.30366313    0.58858239   -0.12575482
     atom    8 type  3   force =    -0.03615019   -0.09783098    0.01980080
     The ionic contribution  to forces
     atom    1 type  1   force =    12.05583385   16.94289606   -3.10855920
     atom    2 type  1   force =   -12.14577454   -0.24055833  -17.95847728
     atom    3 type  1   force =   -13.14099008    6.34789865   15.94016886
     atom    4 type  2   force =    -5.84164012  -16.25092963    3.55438133
     atom    5 type  2   force =    14.71846387   -5.90766970    1.34225064
     atom    6 type  4   force =     1.04753517   -1.76576233    0.41855040
     atom    7 type  4   force =     0.15656802   -2.09590082    0.40836657
     atom    8 type  3   force =     3.15000381    2.97002610   -0.59668131
     The local contribution  to forces
     atom    1 type  1   force =   -10.32524861  -14.64545229    2.71818710
     atom    2 type  1   force =    10.43365974    0.21484882   15.43803593
     atom    3 type  1   force =    11.28058687   -5.43247914  -13.69773368
     atom    4 type  2   force =     4.68059189   13.88540972   -3.07491641
     atom    5 type  2   force =   -13.21569734    4.09873022   -0.96025719
     atom    6 type  4   force =    -1.31884014    1.68449744   -0.40338555
     atom    7 type  4   force =     0.10306994    1.56181653   -0.29346870
     atom    8 type  3   force =    -3.12310369   -2.87876741    0.57842116
     The core correction contribution to forces
     atom    1 type  1   force =     0.00563662    0.00748101   -0.00127322
     atom    2 type  1   force =    -0.00568315    0.00003973   -0.00834010
     atom    3 type  1   force =    -0.00617937    0.00314619    0.00737789
     atom    4 type  2   force =    -0.00834006   -0.01739535    0.00352730
     atom    5 type  2   force =     0.01209242   -0.01479395    0.00312546
     atom    6 type  4   force =    -0.00882671   -0.00666910    0.00128828
     atom    7 type  4   force =     0.00609061   -0.01165218    0.00248447
     atom    8 type  3   force =     0.00000000    0.00000000    0.00000000
     The Hubbard contrib.    to forces
     atom    1 type  1   force =     0.00000000    0.00000000    0.00000000
     atom    2 type  1   force =     0.00000000    0.00000000    0.00000000
     atom    3 type  1   force =     0.00000000    0.00000000    0.00000000
     atom    4 type  2   force =     0.00000000    0.00000000    0.00000000
     atom    5 type  2   force =     0.00000000    0.00000000    0.00000000
     atom    6 type  4   force =     0.00000000    0.00000000    0.00000000
     atom    7 type  4   force =     0.00000000    0.00000000    0.00000000
     atom    8 type  3   force =     0.00000000    0.00000000    0.00000000
     The SCF correction term to forces
     atom    1 type  1   force =    -0.00013536   -0.00023848    0.00003809
     atom    2 type  1   force =     0.00018581   -0.00001214    0.00021120
     atom    3 type  1   force =     0.00019723   -0.00009193   -0.00018538
     atom    4 type  2   force =     0.00011218    0.00031045   -0.00006527
     atom    5 type  2   force =    -0.00024388    0.00010034   -0.00002364
     atom    6 type  4   force =    -0.00004057    0.00021428   -0.00004562
     atom    7 type  4   force =     0.00007463   -0.00005066    0.00000811
     atom    8 type  3   force =    -0.00001387    0.00003306   -0.00000710

     Total force =     0.127397     Total SCF correction =     0.000693


     Computing stress (Cartesian axis) and pressure


     negative rho (up, down):  1.014E-03 0.000E+00
          total   stress  (Ry/bohr**3)                   (kbar)     P=       -3.55
  -0.00002708  -0.00001519   0.00000358           -3.98       -2.23        0.53
  -0.00001519  -0.00003365   0.00000474           -2.23       -4.95        0.70
   0.00000358   0.00000474  -0.00001165            0.53        0.70       -1.71


     Writing all to output data dir ./Outputs/TFA.save/

     init_run     :    163.88s CPU     40.82s WALL (       1 calls)
     electrons    :   7519.01s CPU   2224.27s WALL (       1 calls)
     forces       :     64.70s CPU     23.41s WALL (       1 calls)
     stress       :    243.66s CPU    119.41s WALL (       1 calls)

     Called by init_run:
     wfcinit      :    145.60s CPU     30.60s WALL (       1 calls)
     potinit      :      6.33s CPU      2.74s WALL (       1 calls)
     hinit0       :      9.83s CPU      5.25s WALL (       1 calls)

     Called by electrons:
     c_bands      :   6401.03s CPU   1901.37s WALL (      12 calls)
     sum_band     :   1065.91s CPU    294.58s WALL (      12 calls)
     v_of_rho     :     26.10s CPU      8.83s WALL (      13 calls)
     newd         :     17.70s CPU     18.39s WALL (      13 calls)
     PAW_pot      :      8.78s CPU      2.38s WALL (      13 calls)
     mix_rho      :      2.42s CPU      0.98s WALL (      12 calls)

     Called by c_bands:
     init_us_2    :     64.26s CPU    -14.65s WALL (    1701 calls)
     init_us_2:cp :     64.23s CPU    -14.66s WALL (    1701 calls)
     cegterg      :   6333.98s CPU   1880.25s WALL (     756 calls)

     Called by *egterg:
     cdiaghg      :     24.72s CPU      0.55s WALL (    4819 calls)
     h_psi        :   5434.77s CPU   1621.73s WALL (    4882 calls)
     s_psi        :    187.83s CPU     59.01s WALL (    4882 calls)
     g_psi        :     84.90s CPU     24.50s WALL (    4063 calls)

     Called by h_psi:
     h_psi:calbec :    188.17s CPU     67.65s WALL (    4882 calls)
     vloc_psi     :   5045.79s CPU   1452.16s WALL (    4882 calls)
     add_vuspsi   :     94.74s CPU     82.96s WALL (    4882 calls)

     General routines
     calbec       :    247.19s CPU     85.99s WALL (    5953 calls)
     fft          :     16.68s CPU      5.91s WALL (     192 calls)
     ffts         :      2.37s CPU      1.10s WALL (      25 calls)
     fftw         :   4655.36s CPU   1295.70s WALL (  136716 calls)
     interpolate  :      3.36s CPU      1.35s WALL (      13 calls)

     Parallel routines

     PWSCF        :      2h13m CPU  40m11.37s WALL


   This run was terminated on:  23:36:35   5Mar2026            

=------------------------------------------------------------------------------=
   JOB DONE.
=------------------------------------------------------------------------------=
