
     Program PWSCF v.7.2 starts on  4Feb2026 at  6:55:52 

     This program is part of the open-source Quantum ESPRESSO suite
     for quantum simulation of materials; please cite
         "P. Giannozzi et al., J. Phys.:Condens. Matter 21 395502 (2009);
         "P. Giannozzi et al., J. Phys.:Condens. Matter 29 465901 (2017);
         "P. Giannozzi et al., J. Chem. Phys. 152 154105 (2020);
          URL http://www.quantum-espresso.org", 
     in publications or presentations arising from this work. More details at
     http://www.quantum-espresso.org/quote

     Parallel version (MPI & OpenMP), running on       4 processor cores
     Number of MPI processes:                 1
     Threads/MPI process:                     4

     MPI processes distributed on     1 nodes
     4555 MiB available memory on the printing compute node when the environment starts

     Reading input from irontfa.in

     Current dimensions of program PWSCF are:
     Max number of different atomic species (ntypx) = 10
     Max number of k-points (npk) =  40000
     Max angular momentum in pseudopotentials (lmaxx) =  4
     file O.pbe-n-kjpaw_psl.1.0.0.UPF: wavefunction(s)  2S 2P renormalized
     file Fe.pbesol-spn-kjpaw_psl.1.0.0.UPF: wavefunction(s)  3P 3D renormalized
     file F.pbe-n-kjpaw_psl.1.0.0.UPF: wavefunction(s)  2S 2P renormalized
     file C.pbe-n-kjpaw_psl.1.0.0.UPF: wavefunction(s)  2S 2P renormalized

     IMPORTANT: XC functional enforced from input :
     Exchange-correlation= PBE
                           (   1   4   3   4   0   0   0)
     Any further DFT definition will be discarded
     Please, verify this is what you really want

     Message from routine setup:
     using ibrav=0 with symmetry is DISCOURAGED, use correct ibrav instead

     Subspace diagonalization in iterative solution of the eigenvalue problem:
     a serial algorithm will be used


     G-vector sticks info
     --------------------
     sticks:   dense  smooth     PW     G-vecs:    dense   smooth      PW
     Sum       14233    8353   2221               918769   414555   56631

     Using Slab Decomposition



     bravais-lattice index     =            0
     lattice parameter (alat)  =      24.6199  a.u.
     unit-cell volume          =    8679.7222 (a.u.)^3
     number of atoms/cell      =          124
     number of atomic types    =            4
     number of electrons       =       808.00
     number of Kohn-Sham states=          485
     kinetic-energy cutoff     =      50.0000  Ry
     charge density cutoff     =     340.0000  Ry
     scf convergence threshold =      1.0E-06
     mixing beta               =       0.7000
     number of iterations used =            8  plain     mixing
     Exchange-correlation= PBE
                           (   1   4   3   4   0   0   0)

     celldm(1)=  24.619919  celldm(2)=   0.000000  celldm(3)=   0.000000
     celldm(4)=   0.000000  celldm(5)=   0.000000  celldm(6)=   0.000000

     crystal axes: (cart. coord. in units of alat)
               a(1) = (   0.866025  -0.500000   0.000000 )  
               a(2) = (   0.000000   1.000000   0.000000 )  
               a(3) = (   0.000000   0.000000   0.671607 )  

     reciprocal axes: (cart. coord. in units 2 pi/alat)
               b(1) = (  1.154701  0.000000  0.000000 )  
               b(2) = (  0.577350  1.000000 -0.000000 )  
               b(3) = ( -0.000000  0.000000  1.488966 )  


     PseudoPot. # 1 for O  read from file:
     ./O.pbe-n-kjpaw_psl.1.0.0.UPF
     MD5 check sum: e99d9cef9b487d1ca56f5b95ecd0fd7a
     Pseudo is Projector augmented-wave + core cor, Zval =  6.0
     Generated using &quot;atomic&quot; code by A. Dal Corso  v.6.3
     Shape of augmentation charge: PSQ
     Using radial grid of 1095 points,  4 beta functions with: 
                l(1) =   0
                l(2) =   0
                l(3) =   1
                l(4) =   1
     Q(r) pseudized with 0 coefficients 


     PseudoPot. # 2 for Fe read from file:
     ./Fe.pbesol-spn-kjpaw_psl.1.0.0.UPF
     MD5 check sum: e30d5f36a6f0cb983ee41abee56170da
     Pseudo is Projector augmented-wave + core cor, Zval = 16.0
     Generated using &quot;atomic&quot; code by A. Dal Corso  v.6.3
     Shape of augmentation charge: PSQ
     Using radial grid of 1191 points,  6 beta functions with: 
                l(1) =   0
                l(2) =   0
                l(3) =   1
                l(4) =   1
                l(5) =   2
                l(6) =   2
     Q(r) pseudized with 0 coefficients 


     PseudoPot. # 3 for F  read from file:
     ./F.pbe-n-kjpaw_psl.1.0.0.UPF
     MD5 check sum: 66d718ea72839a4268ab2a9540e8cdd4
     Pseudo is Projector augmented-wave + core cor, Zval =  7.0
     Generated using &quot;atomic&quot; code by A. Dal Corso  v.6.3
     Shape of augmentation charge: PSQ
     Using radial grid of 1105 points,  4 beta functions with: 
                l(1) =   0
                l(2) =   0
                l(3) =   1
                l(4) =   1
     Q(r) pseudized with 0 coefficients 


     PseudoPot. # 4 for C  read from file:
     ./C.pbe-n-kjpaw_psl.1.0.0.UPF
     MD5 check sum: 5f16ad9a65e90284d1d834d4ab3b0f7d
     Pseudo is Projector augmented-wave + core cor, Zval =  4.0
     Generated using &quot;atomic&quot; code by A. Dal Corso  v.6.3
     Shape of augmentation charge: PSQ
     Using radial grid of 1073 points,  4 beta functions with: 
                l(1) =   0
                l(2) =   0
                l(3) =   1
                l(4) =   1
     Q(r) pseudized with 0 coefficients 


     atomic species   valence    mass     pseudopotential
        O              6.00    15.99900     O ( 1.00)
        Fe            16.00    55.84500     Fe( 1.00)
        F              7.00    18.99800     F ( 1.00)
        C              4.00    12.01060     C ( 1.00)

      6 Sym. Ops. (no inversion) found ( 3 have fractional translation)


                                    s                        frac. trans.

      isym =  1     identity                                     

 cryst.   s( 1) = (     1          0          0      )
                  (     0          1          0      )
                  (     0          0          1      )

 cart.    s( 1) = (  1.0000000  0.0000000  0.0000000 )
                  (  0.0000000  1.0000000  0.0000000 )
                  (  0.0000000  0.0000000  1.0000000 )


      isym =  2     120 deg rotation - cryst. axis [0,0,1]       

 cryst.   s( 2) = (     0          1          0      )
                  (    -1         -1          0      )
                  (     0          0          1      )

 cart.    s( 2) = ( -0.5000000 -0.8660254  0.0000000 )
                  (  0.8660254 -0.5000000  0.0000000 )
                  (  0.0000000  0.0000000  1.0000000 )


      isym =  3     120 deg rotation - cryst. axis [0,0,-1]      

 cryst.   s( 3) = (    -1         -1          0      )
                  (     1          0          0      )
                  (     0          0          1      )

 cart.    s( 3) = ( -0.5000000  0.8660254  0.0000000 )
                  ( -0.8660254 -0.5000000  0.0000000 )
                  (  0.0000000  0.0000000  1.0000000 )


      isym =  4     inv. 180 deg rotation - cart. axis [0,1,0]   

 cryst.   s( 4) = (     1          1          0      )    f =(  0.0000000 )
                  (     0         -1          0      )       ( -0.0000000 )
                  (     0          0          1      )       ( -0.5000000 )

 cart.    s( 4) = (  1.0000000  0.0000000  0.0000000 )    f =(  0.0000000 )
                  (  0.0000000 -1.0000000  0.0000000 )       ( -0.0000000 )
                  (  0.0000000  0.0000000  1.0000000 )       ( -0.3358036 )


      isym =  5     inv. 180 deg rotation - cryst. axis [1,-1,0] 

 cryst.   s( 5) = (    -1          0          0      )    f =(  0.0000000 )
                  (     1          1          0      )       (  0.0000000 )
                  (     0          0          1      )       ( -0.5000000 )

 cart.    s( 5) = ( -0.5000000  0.8660254  0.0000000 )    f =(  0.0000000 )
                  (  0.8660254  0.5000000  0.0000000 )       ( -0.0000000 )
                  (  0.0000000  0.0000000  1.0000000 )       ( -0.3358036 )


      isym =  6     inv. 180 deg rotation - cryst. axis [2,1,0]  

 cryst.   s( 6) = (     0         -1          0      )    f =(  0.0000000 )
                  (    -1          0          0      )       (  0.0000000 )
                  (     0          0          1      )       ( -0.5000000 )

 cart.    s( 6) = ( -0.5000000 -0.8660254  0.0000000 )    f =(  0.0000000 )
                  ( -0.8660254  0.5000000  0.0000000 )       (  0.0000000 )
                  (  0.0000000  0.0000000  1.0000000 )       ( -0.3358036 )


   Cartesian axes

     site n.     atom                  positions (alat units)
         1           Fe  tau(   1) = (   0.2886751   0.5000000   0.3344604  )
         2           Fe  tau(   2) = (   0.2886751   0.5000000   0.6702640  )
         3           Fe  tau(   3) = (   0.5773503  -0.0000000   0.3230431  )
         4           Fe  tau(   4) = (   0.5773503  -0.0000000   0.6588467  )
         5           F   tau(   5) = (   0.1773360   0.1966550   0.2303277  )
         6           F   tau(   6) = (   0.0816402   0.2519050   0.5661313  )
         7           F   tau(   7) = (   0.6070492   0.4447500   0.5661313  )
         8           F   tau(   8) = (   0.1773360   0.8033450   0.5661313  )
         9           F   tau(   9) = (   0.6070492   0.5552500   0.2303277  )
        10           F   tau(  10) = (   0.0816402   0.7480950   0.2303277  )
        11           F   tau(  11) = (   0.3194335   0.1464250   0.1602589  )
        12           F   tau(  12) = (   0.8331164  -0.1501500   0.4960625  )
        13           F   tau(  13) = (   0.5795009   0.2965750   0.4960625  )
        14           F   tau(  14) = (   0.3194335  -0.1464250   0.4960625  )
        15           F   tau(  15) = (   0.5795009  -0.2965750   0.1602589  )
        16           F   tau(  16) = (   0.8331164   0.1501500   0.1602589  )
        17           F   tau(  17) = (   0.1922230   0.1965500   0.0658914  )
        18           F   tau(  18) = (   0.0741058   0.2647450   0.4016950  )
        19           F   tau(  19) = (   0.5996966   0.4318050   0.4016950  )
        20           F   tau(  20) = (   0.1922230   0.8034500   0.4016950  )
        21           F   tau(  21) = (   0.5996966   0.5681950   0.0658914  )
        22           F   tau(  22) = (   0.0741058   0.7352550   0.0658914  )
        23           F   tau(  23) = (   0.1406252   0.2149200   0.1394928  )
        24           F   tau(  24) = (   0.1158136   0.2292450   0.4752964  )
        25           F   tau(  25) = (   0.6095866   0.4856750   0.4752964  )
        26           F   tau(  26) = (   0.1406252   0.7850800   0.4752964  )
        27           F   tau(  27) = (   0.6095866   0.5143250   0.1394928  )
        28           F   tau(  28) = (   0.1158136   0.7707550   0.1394928  )
        29           F   tau(  29) = (   0.2617042   0.1669650   0.2425912  )
        30           F   tau(  30) = (   0.0137438   0.3101250   0.5783948  )
        31           F   tau(  31) = (   0.5905774   0.3568400   0.5783948  )
        32           F   tau(  32) = (   0.2617042   0.8330350   0.5783948  )
        33           F   tau(  33) = (   0.5905774   0.6431600   0.2425912  )
        34           F   tau(  34) = (   0.0137438   0.6898750   0.2425912  )
        35           F   tau(  35) = (   0.2838225   0.1587450   0.0784437  )
        36           F   tau(  36) = (   0.8615914  -0.1748300   0.4142473  )
        37           F   tau(  37) = (   0.5866369   0.3335750   0.4142473  )
        38           F   tau(  38) = (   0.2838225  -0.1587450   0.4142473  )
        39           F   tau(  39) = (   0.5866369  -0.3335750   0.0784437  )
        40           F   tau(  40) = (   0.8615914   0.1748300   0.0784437  )
        41           F   tau(  41) = (   0.5315837   0.3179700   0.0606394  )
        42           F   tau(  42) = (   0.0095782   0.6193500   0.3964430  )
        43           F   tau(  43) = (   0.3248634   0.1986200   0.3964430  )
        44           F   tau(  44) = (   0.5315837   0.6820300   0.3964430  )
        45           F   tau(  45) = (   0.3248634   0.8013800   0.0606394  )
        46           F   tau(  46) = (   0.0095782   0.3806500   0.0606394  )
        47           F   tau(  47) = (   0.6711350   0.3293500   0.1500773  )
        48           F   tau(  48) = (   0.8156833   0.2458950   0.4858809  )
        49           F   tau(  49) = (   0.2452324   0.0834550   0.4858809  )
        50           F   tau(  50) = (   0.6711350  -0.3293500   0.4858809  )
        51           F   tau(  51) = (   0.2452324  -0.0834550   0.1500773  )
        52           F   tau(  52) = (   0.8156833  -0.2458950   0.1500773  )
        53           F   tau(  53) = (   0.5230534   0.3251750   0.2253712  )
        54           F   tau(  54) = (   0.0200831   0.6155650   0.5611748  )
        55           F   tau(  55) = (   0.3228889   0.2096100   0.5611748  )
        56           F   tau(  56) = (   0.5230534   0.6748250   0.5611748  )
        57           F   tau(  57) = (   0.3228889   0.7903900   0.2253712  )
        58           F   tau(  58) = (   0.0200831   0.3844350   0.2253712  )
        59           F   tau(  59) = (   0.4794923   0.3171250   0.1354229  )
        60           F   tau(  60) = (   0.0348922   0.5738150   0.4712265  )
        61           F   tau(  61) = (   0.3516410   0.2433100   0.4712265  )
        62           F   tau(  62) = (   0.4794923   0.6828750   0.4712265  )
        63           F   tau(  63) = (   0.3516410   0.7566900   0.1354229  )
        64           F   tau(  64) = (   0.0348922   0.4261850   0.1354229  )
        65           F   tau(  65) = (   0.6138475   0.3331550   0.2305560  )
        66           F   tau(  66) = (   0.8476224   0.1981850   0.5663596  )
        67           F   tau(  67) = (   0.2705810   0.1349700   0.5663596  )
        68           F   tau(  68) = (   0.6138475  -0.3331550   0.5663596  )
        69           F   tau(  69) = (   0.2705810  -0.1349700   0.2305560  )
        70           F   tau(  70) = (   0.8476224  -0.1981850   0.2305560  )
        71           F   tau(  71) = (   0.6303972   0.3218300   0.0659384  )
        72           F   tau(  72) = (   0.8295398   0.2068550   0.4017420  )
        73           F   tau(  73) = (   0.2721138   0.1149750   0.4017420  )
        74           F   tau(  74) = (   0.6303972  -0.3218300   0.4017420  )
        75           F   tau(  75) = (   0.2721138  -0.1149750   0.0659384  )
        76           F   tau(  76) = (   0.8295398  -0.2068550   0.0659384  )
        77           O   tau(  77) = (   0.2971073   0.3652450   0.2455262  )
        78           O   tau(  78) = (   0.1677578   0.4399250   0.5813298  )
        79           O   tau(  79) = (   0.4011603   0.4253200   0.5813298  )
        80           O   tau(  80) = (   0.2971073   0.6347550   0.5813298  )
        81           O   tau(  81) = (   0.4011603   0.5746800   0.2455262  )
        82           O   tau(  82) = (   0.1677578   0.5600750   0.2455262  )
        83           O   tau(  83) = (   0.3127997   0.3651350   0.0721306  )
        84           O   tau(  84) = (   0.1598163   0.4534600   0.4079342  )
        85           O   tau(  85) = (   0.3934094   0.4116750   0.4079342  )
        86           O   tau(  86) = (   0.3127997   0.6348650   0.4079342  )
        87           O   tau(  87) = (   0.3934094   0.5883250   0.0721306  )
        88           O   tau(  88) = (   0.1598163   0.5465400   0.0721306  )
        89           O   tau(  89) = (   0.5964404   0.1211550   0.0680204  )
        90           O   tau(  90) = (   0.6727285   0.0771100   0.4038240  )
        91           O   tau(  91) = (   0.4628819   0.0440450   0.4038240  )
        92           O   tau(  92) = (   0.5964404  -0.1211550   0.4038240  )
        93           O   tau(  93) = (   0.4628819  -0.0440450   0.0680204  )
        94           O   tau(  94) = (   0.6727285  -0.0771100   0.0680204  )
        95           O   tau(  95) = (   0.5874424   0.1287500   0.2417316  )
        96           O   tau(  96) = (   0.6838050   0.0731150   0.5775352  )
        97           O   tau(  97) = (   0.4608035   0.0556350   0.5775352  )
        98           O   tau(  98) = (   0.5874424  -0.1287500   0.5775352  )
        99           O   tau(  99) = (   0.4608035  -0.0556350   0.2417316  )
       100           O   tau( 100) = (   0.6838050  -0.0731150   0.2417316  )
       101           C   tau( 101) = (   0.2435783   0.2182000   0.1533884  )
       102           C   tau( 102) = (   0.0671776   0.3200450   0.4891920  )
       103           C   tau( 103) = (   0.5552695   0.3981550   0.4891920  )
       104           C   tau( 104) = (   0.2435783   0.7818000   0.4891920  )
       105           C   tau( 105) = (   0.5552695   0.6018450   0.1533884  )
       106           C   tau( 106) = (   0.0671776   0.6799550   0.1533884  )
       107           C   tau( 107) = (   0.2893997   0.3306050   0.1574449  )
       108           C   tau( 108) = (   0.1416125   0.4159300   0.4932485  )
       109           C   tau( 109) = (   0.4350132   0.4146750   0.4932485  )
       110           C   tau( 110) = (   0.2893997   0.6693950   0.4932485  )
       111           C   tau( 111) = (   0.4350132   0.5853250   0.1574449  )
       112           C   tau( 112) = (   0.1416125   0.5840700   0.1574449  )
       113           C   tau( 113) = (   0.5771020   0.2834600   0.1472297  )
       114           C   tau( 114) = (   0.8229580   0.1415150   0.4830333  )
       115           C   tau( 115) = (   0.3319908   0.1419450   0.4830333  )
       116           C   tau( 116) = (   0.5771020  -0.2834600   0.4830333  )
       117           C   tau( 117) = (   0.3319908  -0.1419450   0.1472297  )
       118           C   tau( 118) = (   0.8229580  -0.1415150   0.1472297  )
       119           C   tau( 119) = (   0.5873904   0.1625800   0.1530123  )
       120           C   tau( 120) = (   0.7131286   0.0899850   0.4888159  )
       121           C   tau( 121) = (   0.4315318   0.0725950   0.4888159  )
       122           C   tau( 122) = (   0.5873904  -0.1625800   0.4888159  )
       123           C   tau( 123) = (   0.4315318  -0.0725950   0.1530123  )
       124           C   tau( 124) = (   0.7131286  -0.0899850   0.1530123  )

   Crystallographic axes

     site n.     atom                  positions (cryst. coord.)
         1           Fe  tau(   1) = (  0.3333333  0.6666667  0.4980000  )
         2           Fe  tau(   2) = (  0.3333333  0.6666667  0.9980000  )
         3           Fe  tau(   3) = (  0.6666667  0.3333333  0.4810000  )
         4           Fe  tau(   4) = (  0.6666667  0.3333333  0.9810000  )
         5           F   tau(   5) = (  0.2047700  0.2990400  0.3429500  )
         6           F   tau(   6) = (  0.0942700  0.2990400  0.8429500  )
         7           F   tau(   7) = (  0.7009600  0.7952300  0.8429500  )
         8           F   tau(   8) = (  0.2047700  0.9057300  0.8429500  )
         9           F   tau(   9) = (  0.7009600  0.9057300  0.3429500  )
        10           F   tau(  10) = (  0.0942700  0.7952300  0.3429500  )
        11           F   tau(  11) = (  0.3688500  0.3308500  0.2386200  )
        12           F   tau(  12) = (  0.9620000  0.3308500  0.7386200  )
        13           F   tau(  13) = (  0.6691500  0.6311500  0.7386200  )
        14           F   tau(  14) = (  0.3688500  0.0380000  0.7386200  )
        15           F   tau(  15) = (  0.6691500  0.0380000  0.2386200  )
        16           F   tau(  16) = (  0.9620000  0.6311500  0.2386200  )
        17           F   tau(  17) = (  0.2219600  0.3075300  0.0981100  )
        18           F   tau(  18) = (  0.0855700  0.3075300  0.5981100  )
        19           F   tau(  19) = (  0.6924700  0.7780400  0.5981100  )
        20           F   tau(  20) = (  0.2219600  0.9144300  0.5981100  )
        21           F   tau(  21) = (  0.6924700  0.9144300  0.0981100  )
        22           F   tau(  22) = (  0.0855700  0.7780400  0.0981100  )
        23           F   tau(  23) = (  0.1623800  0.2961100  0.2077000  )
        24           F   tau(  24) = (  0.1337300  0.2961100  0.7077000  )
        25           F   tau(  25) = (  0.7038900  0.8376200  0.7077000  )
        26           F   tau(  26) = (  0.1623800  0.8662700  0.7077000  )
        27           F   tau(  27) = (  0.7038900  0.8662700  0.2077000  )
        28           F   tau(  28) = (  0.1337300  0.8376200  0.2077000  )
        29           F   tau(  29) = (  0.3021900  0.3180600  0.3612100  )
        30           F   tau(  30) = (  0.0158700  0.3180600  0.8612100  )
        31           F   tau(  31) = (  0.6819400  0.6978100  0.8612100  )
        32           F   tau(  32) = (  0.3021900  0.9841300  0.8612100  )
        33           F   tau(  33) = (  0.6819400  0.9841300  0.3612100  )
        34           F   tau(  34) = (  0.0158700  0.6978100  0.3612100  )
        35           F   tau(  35) = (  0.3277300  0.3226100  0.1168000  )
        36           F   tau(  36) = (  0.9948800  0.3226100  0.6168000  )
        37           F   tau(  37) = (  0.6773900  0.6722700  0.6168000  )
        38           F   tau(  38) = (  0.3277300  0.0051200  0.6168000  )
        39           F   tau(  39) = (  0.6773900  0.0051200  0.1168000  )
        40           F   tau(  40) = (  0.9948800  0.6722700  0.1168000  )
        41           F   tau(  41) = (  0.6138200  0.6248800  0.0902900  )
        42           F   tau(  42) = (  0.0110600  0.6248800  0.5902900  )
        43           F   tau(  43) = (  0.3751200  0.3861800  0.5902900  )
        44           F   tau(  44) = (  0.6138200  0.9889400  0.5902900  )
        45           F   tau(  45) = (  0.3751200  0.9889400  0.0902900  )
        46           F   tau(  46) = (  0.0110600  0.3861800  0.0902900  )
        47           F   tau(  47) = (  0.7749600  0.7168300  0.2234600  )
        48           F   tau(  48) = (  0.9418700  0.7168300  0.7234600  )
        49           F   tau(  49) = (  0.2831700  0.2250400  0.7234600  )
        50           F   tau(  50) = (  0.7749600  0.0581300  0.7234600  )
        51           F   tau(  51) = (  0.2831700  0.0581300  0.2234600  )
        52           F   tau(  52) = (  0.9418700  0.2250400  0.2234600  )
        53           F   tau(  53) = (  0.6039700  0.6271600  0.3355700  )
        54           F   tau(  54) = (  0.0231900  0.6271600  0.8355700  )
        55           F   tau(  55) = (  0.3728400  0.3960300  0.8355700  )
        56           F   tau(  56) = (  0.6039700  0.9768100  0.8355700  )
        57           F   tau(  57) = (  0.3728400  0.9768100  0.3355700  )
        58           F   tau(  58) = (  0.0231900  0.3960300  0.3355700  )
        59           F   tau(  59) = (  0.5536700  0.5939600  0.2016400  )
        60           F   tau(  60) = (  0.0402900  0.5939600  0.7016400  )
        61           F   tau(  61) = (  0.4060400  0.4463300  0.7016400  )
        62           F   tau(  62) = (  0.5536700  0.9597100  0.7016400  )
        63           F   tau(  63) = (  0.4060400  0.9597100  0.2016400  )
        64           F   tau(  64) = (  0.0402900  0.4463300  0.2016400  )
        65           F   tau(  65) = (  0.7088100  0.6875600  0.3432900  )
        66           F   tau(  66) = (  0.9787500  0.6875600  0.8432900  )
        67           F   tau(  67) = (  0.3124400  0.2911900  0.8432900  )
        68           F   tau(  68) = (  0.7088100  0.0212500  0.8432900  )
        69           F   tau(  69) = (  0.3124400  0.0212500  0.3432900  )
        70           F   tau(  70) = (  0.9787500  0.2911900  0.3432900  )
        71           F   tau(  71) = (  0.7279200  0.6857900  0.0981800  )
        72           F   tau(  72) = (  0.9578700  0.6857900  0.5981800  )
        73           F   tau(  73) = (  0.3142100  0.2720800  0.5981800  )
        74           F   tau(  74) = (  0.7279200  0.0421300  0.5981800  )
        75           F   tau(  75) = (  0.3142100  0.0421300  0.0981800  )
        76           F   tau(  76) = (  0.9578700  0.2720800  0.0981800  )
        77           O   tau(  77) = (  0.3430700  0.5367800  0.3655800  )
        78           O   tau(  78) = (  0.1937100  0.5367800  0.8655800  )
        79           O   tau(  79) = (  0.4632200  0.6569300  0.8655800  )
        80           O   tau(  80) = (  0.3430700  0.8062900  0.8655800  )
        81           O   tau(  81) = (  0.4632200  0.8062900  0.3655800  )
        82           O   tau(  82) = (  0.1937100  0.6569300  0.3655800  )
        83           O   tau(  83) = (  0.3611900  0.5457300  0.1074000  )
        84           O   tau(  84) = (  0.1845400  0.5457300  0.6074000  )
        85           O   tau(  85) = (  0.4542700  0.6388100  0.6074000  )
        86           O   tau(  86) = (  0.3611900  0.8154600  0.6074000  )
        87           O   tau(  87) = (  0.4542700  0.8154600  0.1074000  )
        88           O   tau(  88) = (  0.1845400  0.6388100  0.1074000  )
        89           O   tau(  89) = (  0.6887100  0.4655100  0.1012800  )
        90           O   tau(  90) = (  0.7768000  0.4655100  0.6012800  )
        91           O   tau(  91) = (  0.5344900  0.3112900  0.6012800  )
        92           O   tau(  92) = (  0.6887100  0.2232000  0.6012800  )
        93           O   tau(  93) = (  0.5344900  0.2232000  0.1012800  )
        94           O   tau(  94) = (  0.7768000  0.3112900  0.1012800  )
        95           O   tau(  95) = (  0.6783200  0.4679100  0.3599300  )
        96           O   tau(  96) = (  0.7895900  0.4679100  0.8599300  )
        97           O   tau(  97) = (  0.5320900  0.3216800  0.8599300  )
        98           O   tau(  98) = (  0.6783200  0.2104100  0.8599300  )
        99           O   tau(  99) = (  0.5320900  0.2104100  0.3599300  )
       100           O   tau( 100) = (  0.7895900  0.3216800  0.3599300  )
       101           C   tau( 101) = (  0.2812600  0.3588300  0.2283900  )
       102           C   tau( 102) = (  0.0775700  0.3588300  0.7283900  )
       103           C   tau( 103) = (  0.6411700  0.7187400  0.7283900  )
       104           C   tau( 104) = (  0.2812600  0.9224300  0.7283900  )
       105           C   tau( 105) = (  0.6411700  0.9224300  0.2283900  )
       106           C   tau( 106) = (  0.0775700  0.7187400  0.2283900  )
       107           C   tau( 107) = (  0.3341700  0.4976900  0.2344300  )
       108           C   tau( 108) = (  0.1635200  0.4976900  0.7344300  )
       109           C   tau( 109) = (  0.5023100  0.6658300  0.7344300  )
       110           C   tau( 110) = (  0.3341700  0.8364800  0.7344300  )
       111           C   tau( 111) = (  0.5023100  0.8364800  0.2344300  )
       112           C   tau( 112) = (  0.1635200  0.6658300  0.2344300  )
       113           C   tau( 113) = (  0.6663800  0.6166500  0.2192200  )
       114           C   tau( 114) = (  0.9502700  0.6166500  0.7192200  )
       115           C   tau( 115) = (  0.3833500  0.3336200  0.7192200  )
       116           C   tau( 116) = (  0.6663800  0.0497300  0.7192200  )
       117           C   tau( 117) = (  0.3833500  0.0497300  0.2192200  )
       118           C   tau( 118) = (  0.9502700  0.3336200  0.2192200  )
       119           C   tau( 119) = (  0.6782600  0.5017100  0.2278300  )
       120           C   tau( 120) = (  0.8234500  0.5017100  0.7278300  )
       121           C   tau( 121) = (  0.4982900  0.3217400  0.7278300  )
       122           C   tau( 122) = (  0.6782600  0.1765500  0.7278300  )
       123           C   tau( 123) = (  0.4982900  0.1765500  0.2278300  )
       124           C   tau( 124) = (  0.8234500  0.3217400  0.2278300  )

     number of k points=     7  Marzari-Vanderbilt smearing, width (Ry)=  0.0050
                       cart. coord. in units 2pi/alat
        k(    1) = (   0.0000000   0.0000000   0.0000000), wk =   0.0740741
        k(    2) = (   0.0000000   0.0000000   0.4963219), wk =   0.1481481
        k(    3) = (   0.1924501   0.3333333   0.0000000), wk =   0.4444444
        k(    4) = (   0.1924501   0.3333333   0.4963219), wk =   0.4444444
        k(    5) = (   0.5773503   0.3333333   0.0000000), wk =   0.1481481
        k(    6) = (   0.5773503   0.3333333   0.4963219), wk =   0.2962963
        k(    7) = (  -0.1924501  -0.3333333   0.4963219), wk =   0.4444444

                       cryst. coord.
        k(    1) = (   0.0000000   0.0000000   0.0000000), wk =   0.0740741
        k(    2) = (   0.0000000   0.0000000   0.3333333), wk =   0.1481481
        k(    3) = (   0.0000000   0.3333333   0.0000000), wk =   0.4444444
        k(    4) = (   0.0000000   0.3333333   0.3333333), wk =   0.4444444
        k(    5) = (   0.3333333   0.3333333   0.0000000), wk =   0.1481481
        k(    6) = (   0.3333333   0.3333333   0.3333333), wk =   0.2962963
        k(    7) = (   0.0000000  -0.3333333   0.3333333), wk =   0.4444444

     Dense  grid:   918769 G-vectors     FFT dimensions: ( 150, 150, 100)

     Smooth grid:   414555 G-vectors     FFT dimensions: ( 120, 120,  80)

     Dynamical RAM for                 wfc:     383.50 MB

     Dynamical RAM for     wfc (w. buffer):    3068.02 MB

     Dynamical RAM for           str. fact:      56.08 MB

     Dynamical RAM for           local pot:       0.00 MB

     Dynamical RAM for          nlocal pot:     816.03 MB

     Dynamical RAM for                qrad:       5.92 MB

     Dynamical RAM for          rho,v,vnew:      93.56 MB

     Dynamical RAM for               rhoin:      31.19 MB

     Dynamical RAM for            rho*nmix:     224.31 MB

     Dynamical RAM for           G-vectors:      55.74 MB

     Dynamical RAM for          h,s,v(r/c):      43.07 MB

     Dynamical RAM for          <psi|beta>:       7.64 MB

     Dynamical RAM for                 psi:     767.00 MB

     Dynamical RAM for                hpsi:     767.00 MB

     Dynamical RAM for                spsi:     767.00 MB

     Dynamical RAM for      wfcinit/wfcrot:     828.55 MB

     Dynamical RAM for           addusdens:    3616.98 MB

     Dynamical RAM for          addusforce:    5615.01 MB

     Dynamical RAM for         addusstress:    2817.88 MB

     Estimated static dynamical RAM per process >       4.18 GB

     Estimated max dynamical RAM per process >       9.88 GB

     Check: negative core charge=   -0.000007

     Initial potential from superposition of free atoms

     starting charge     807.9973, renormalised to     808.0000

     negative rho (up, down):  2.748E-04 0.000E+00
     Starting wfcs are  520 randomized atomic wfcs
     Checking if some PAW data can be deallocated... 

     total cpu time spent up to now is      321.9 secs

     per-process dynamical memory:   239.8 Mb

     Self-consistent Calculation

     iteration #  1     ecut=    50.00 Ry     beta= 0.70
     Davidson diagonalization with overlap

---- Real-time Memory Report at c_bands before calling an iterative solver
          4762 MiB given to the printing process from OS
           234 MiB allocation reported by mallinfo(arena+hblkhd)
           725 MiB available memory on the node where the printing process lives
------------------
     ethr =  1.00E-02,  avg # of iterations =  4.7

     negative rho (up, down):  2.833E-04 0.000E+00

     total cpu time spent up to now is     1354.3 secs

     total energy              =   -6884.64705978 Ry
     estimated scf accuracy    <     103.23122905 Ry

     iteration #  2     ecut=    50.00 Ry     beta= 0.70
     Davidson diagonalization with overlap

---- Real-time Memory Report at c_bands before calling an iterative solver
          6881 MiB given to the printing process from OS
           360 MiB allocation reported by mallinfo(arena+hblkhd)
          2684 MiB available memory on the node where the printing process lives
------------------
     ethr =  1.00E-02,  avg # of iterations =  6.9

     total cpu time spent up to now is     2267.7 secs

     total energy              =   -6696.49144941 Ry
     estimated scf accuracy    <    3848.19772963 Ry

     iteration #  3     ecut=    50.00 Ry     beta= 0.70
     Davidson diagonalization with overlap

---- Real-time Memory Report at c_bands before calling an iterative solver
          6883 MiB given to the printing process from OS
           373 MiB allocation reported by mallinfo(arena+hblkhd)
          2700 MiB available memory on the node where the printing process lives
------------------
     ethr =  1.00E-02,  avg # of iterations =  8.4

     total cpu time spent up to now is     3491.0 secs

     total energy              =   -6960.00241473 Ry
     estimated scf accuracy    <     179.61996244 Ry

     iteration #  4     ecut=    50.00 Ry     beta= 0.70
     Davidson diagonalization with overlap

---- Real-time Memory Report at c_bands before calling an iterative solver
          6891 MiB given to the printing process from OS
           386 MiB allocation reported by mallinfo(arena+hblkhd)
          2709 MiB available memory on the node where the printing process lives
------------------
     ethr =  1.00E-02,  avg # of iterations =  2.0

     total cpu time spent up to now is     3983.1 secs

     total energy              =   -6958.90574538 Ry
     estimated scf accuracy    <     129.56598198 Ry

     iteration #  5     ecut=    50.00 Ry     beta= 0.70
     Davidson diagonalization with overlap

---- Real-time Memory Report at c_bands before calling an iterative solver
          6904 MiB given to the printing process from OS
           399 MiB allocation reported by mallinfo(arena+hblkhd)
          2711 MiB available memory on the node where the printing process lives
------------------
     ethr =  1.00E-02,  avg # of iterations =  1.0

     total cpu time spent up to now is     4444.4 secs

     total energy              =   -6950.92275418 Ry
     estimated scf accuracy    <     110.84247237 Ry

     iteration #  6     ecut=    50.00 Ry     beta= 0.70
     Davidson diagonalization with overlap

---- Real-time Memory Report at c_bands before calling an iterative solver
          6935 MiB given to the printing process from OS
           412 MiB allocation reported by mallinfo(arena+hblkhd)
          2694 MiB available memory on the node where the printing process lives
------------------
     ethr =  1.00E-02,  avg # of iterations =  9.4

     negative rho (up, down):  1.993E-01 0.000E+00

     total cpu time spent up to now is     5016.8 secs

     total energy              =   -6944.22290265 Ry
     estimated scf accuracy    <      43.97404465 Ry

     iteration #  7     ecut=    50.00 Ry     beta= 0.70
     Davidson diagonalization with overlap

---- Real-time Memory Report at c_bands before calling an iterative solver
          6950 MiB given to the printing process from OS
           425 MiB allocation reported by mallinfo(arena+hblkhd)
          2727 MiB available memory on the node where the printing process lives
------------------
     ethr =  5.44E-03,  avg # of iterations =  6.0

     total cpu time spent up to now is     5818.1 secs

     total energy              =   -6977.33601741 Ry
     estimated scf accuracy    <     128.84238594 Ry

     iteration #  8     ecut=    50.00 Ry     beta= 0.70
     Davidson diagonalization with overlap

---- Real-time Memory Report at c_bands before calling an iterative solver
          6961 MiB given to the printing process from OS
           438 MiB allocation reported by mallinfo(arena+hblkhd)
          2722 MiB available memory on the node where the printing process lives
------------------
     ethr =  5.44E-03,  avg # of iterations =  2.0

     total cpu time spent up to now is     6276.1 secs

     total energy              =   -6974.79397172 Ry
     estimated scf accuracy    <      97.93318739 Ry

     iteration #  9     ecut=    50.00 Ry     beta= 0.70
     Davidson diagonalization with overlap

---- Real-time Memory Report at c_bands before calling an iterative solver
          6975 MiB given to the printing process from OS
           451 MiB allocation reported by mallinfo(arena+hblkhd)
          2710 MiB available memory on the node where the printing process lives
------------------
     ethr =  5.44E-03,  avg # of iterations =  1.0

     total cpu time spent up to now is     6720.4 secs

     total energy              =   -6970.19698600 Ry
     estimated scf accuracy    <      85.14851323 Ry

     iteration # 10     ecut=    50.00 Ry     beta= 0.70
     Davidson diagonalization with overlap

---- Real-time Memory Report at c_bands before calling an iterative solver
          6988 MiB given to the printing process from OS
           464 MiB allocation reported by mallinfo(arena+hblkhd)
          2730 MiB available memory on the node where the printing process lives
------------------
     ethr =  5.44E-03,  avg # of iterations =  1.0

     total cpu time spent up to now is     7167.8 secs

     total energy              =   -6959.68162522 Ry
     estimated scf accuracy    <      71.66768545 Ry

     iteration # 11     ecut=    50.00 Ry     beta= 0.70
     Davidson diagonalization with overlap

---- Real-time Memory Report at c_bands before calling an iterative solver
          6988 MiB given to the printing process from OS
           464 MiB allocation reported by mallinfo(arena+hblkhd)
          2724 MiB available memory on the node where the printing process lives
------------------
     ethr =  5.44E-03,  avg # of iterations =  2.0

     total cpu time spent up to now is     7628.8 secs

     total energy              =   -6957.25510913 Ry
     estimated scf accuracy    <      59.23780336 Ry

     iteration # 12     ecut=    50.00 Ry     beta= 0.70
     Davidson diagonalization with overlap

---- Real-time Memory Report at c_bands before calling an iterative solver
          6988 MiB given to the printing process from OS
           464 MiB allocation reported by mallinfo(arena+hblkhd)
          2734 MiB available memory on the node where the printing process lives
------------------
     ethr =  5.44E-03,  avg # of iterations =  2.0

     total cpu time spent up to now is     8144.9 secs

     total energy              =   -6967.06322684 Ry
     estimated scf accuracy    <      54.64927379 Ry

     iteration # 13     ecut=    50.00 Ry     beta= 0.70
     Davidson diagonalization with overlap

---- Real-time Memory Report at c_bands before calling an iterative solver
          6988 MiB given to the printing process from OS
           464 MiB allocation reported by mallinfo(arena+hblkhd)
          2707 MiB available memory on the node where the printing process lives
------------------
     ethr =  5.44E-03,  avg # of iterations =  1.0

     total cpu time spent up to now is     8531.8 secs

     total energy              =   -6966.70312572 Ry
     estimated scf accuracy    <      54.23895584 Ry

     iteration # 14     ecut=    50.00 Ry     beta= 0.70
     Davidson diagonalization with overlap

---- Real-time Memory Report at c_bands before calling an iterative solver
          6988 MiB given to the printing process from OS
           464 MiB allocation reported by mallinfo(arena+hblkhd)
          2707 MiB available memory on the node where the printing process lives
------------------
     ethr =  5.44E-03,  avg # of iterations =  1.0

     total cpu time spent up to now is     8971.4 secs

     total energy              =   -6965.28193493 Ry
     estimated scf accuracy    <      52.67100087 Ry

     iteration # 15     ecut=    50.00 Ry     beta= 0.70
     Davidson diagonalization with overlap

---- Real-time Memory Report at c_bands before calling an iterative solver
          6988 MiB given to the printing process from OS
           464 MiB allocation reported by mallinfo(arena+hblkhd)
          2717 MiB available memory on the node where the printing process lives
------------------
     ethr =  5.44E-03,  avg # of iterations =  1.0

     total cpu time spent up to now is     9408.9 secs

     total energy              =   -6964.20235213 Ry
     estimated scf accuracy    <      48.53071686 Ry

     iteration # 16     ecut=    50.00 Ry     beta= 0.70
     Davidson diagonalization with overlap

---- Real-time Memory Report at c_bands before calling an iterative solver
          6988 MiB given to the printing process from OS
           464 MiB allocation reported by mallinfo(arena+hblkhd)
          2721 MiB available memory on the node where the printing process lives
------------------
     ethr =  5.44E-03,  avg # of iterations =  1.0

     total cpu time spent up to now is     9857.8 secs

     total energy              =   -6963.23430900 Ry
     estimated scf accuracy    <      34.25666469 Ry

     iteration # 17     ecut=    50.00 Ry     beta= 0.70
     Davidson diagonalization with overlap

---- Real-time Memory Report at c_bands before calling an iterative solver
          6988 MiB given to the printing process from OS
           464 MiB allocation reported by mallinfo(arena+hblkhd)
          2715 MiB available memory on the node where the printing process lives
------------------
     ethr =  4.24E-03,  avg # of iterations =  1.0

     total cpu time spent up to now is    10233.8 secs

     total energy              =   -6963.54333655 Ry
     estimated scf accuracy    <       3.19498707 Ry

     iteration # 18     ecut=    50.00 Ry     beta= 0.70
     Davidson diagonalization with overlap

---- Real-time Memory Report at c_bands before calling an iterative solver
          6988 MiB given to the printing process from OS
           464 MiB allocation reported by mallinfo(arena+hblkhd)
          2717 MiB available memory on the node where the printing process lives
------------------
     ethr =  3.95E-04,  avg # of iterations =  1.9

     total cpu time spent up to now is    10749.9 secs

     total energy              =   -6963.19459895 Ry
     estimated scf accuracy    <      15.40180502 Ry

     iteration # 19     ecut=    50.00 Ry     beta= 0.70
     Davidson diagonalization with overlap

---- Real-time Memory Report at c_bands before calling an iterative solver
          6988 MiB given to the printing process from OS
           464 MiB allocation reported by mallinfo(arena+hblkhd)
          2710 MiB available memory on the node where the printing process lives
------------------
     ethr =  3.95E-04,  avg # of iterations =  1.7

     total cpu time spent up to now is    11206.5 secs

     total energy              =   -6963.26756908 Ry
     estimated scf accuracy    <      28.34660163 Ry

     iteration # 20     ecut=    50.00 Ry     beta= 0.70
     Davidson diagonalization with overlap

---- Real-time Memory Report at c_bands before calling an iterative solver
          6988 MiB given to the printing process from OS
           464 MiB allocation reported by mallinfo(arena+hblkhd)
          2706 MiB available memory on the node where the printing process lives
------------------
     ethr =  3.95E-04,  avg # of iterations =  1.7

     total cpu time spent up to now is    11656.6 secs

     total energy              =   -6963.44584709 Ry
     estimated scf accuracy    <       0.80053623 Ry

     iteration # 21     ecut=    50.00 Ry     beta= 0.70
     Davidson diagonalization with overlap

---- Real-time Memory Report at c_bands before calling an iterative solver
          6988 MiB given to the printing process from OS
           464 MiB allocation reported by mallinfo(arena+hblkhd)
          2705 MiB available memory on the node where the printing process lives
------------------
     ethr =  9.91E-05,  avg # of iterations =  3.0

     total cpu time spent up to now is    12128.0 secs

     total energy              =   -6962.92274459 Ry
     estimated scf accuracy    <      14.27181552 Ry

     iteration # 22     ecut=    50.00 Ry     beta= 0.70
     Davidson diagonalization with overlap

---- Real-time Memory Report at c_bands before calling an iterative solver
          6988 MiB given to the printing process from OS
           464 MiB allocation reported by mallinfo(arena+hblkhd)
          2702 MiB available memory on the node where the printing process lives
------------------
     c_bands:  2 eigenvalues not converged
     ethr =  9.91E-05,  avg # of iterations =  8.9

     total cpu time spent up to now is    12676.9 secs

     total energy              =   -6963.26334343 Ry
     estimated scf accuracy    <       9.03984916 Ry

     iteration # 23     ecut=    50.00 Ry     beta= 0.70
     Davidson diagonalization with overlap

---- Real-time Memory Report at c_bands before calling an iterative solver
          6988 MiB given to the printing process from OS
           464 MiB allocation reported by mallinfo(arena+hblkhd)
          2703 MiB available memory on the node where the printing process lives
------------------
     ethr =  9.91E-05,  avg # of iterations =  3.1

     total cpu time spent up to now is    13129.7 secs

     total energy              =   -6963.48202914 Ry
     estimated scf accuracy    <       1.53283070 Ry

     iteration # 24     ecut=    50.00 Ry     beta= 0.70
     Davidson diagonalization with overlap

---- Real-time Memory Report at c_bands before calling an iterative solver
          6988 MiB given to the printing process from OS
           464 MiB allocation reported by mallinfo(arena+hblkhd)
          2702 MiB available memory on the node where the printing process lives
------------------
     ethr =  9.91E-05,  avg # of iterations =  2.0

     total cpu time spent up to now is    13589.0 secs

     total energy              =   -6963.52222546 Ry
     estimated scf accuracy    <       0.32708464 Ry

     iteration # 25     ecut=    50.00 Ry     beta= 0.70
     Davidson diagonalization with overlap

---- Real-time Memory Report at c_bands before calling an iterative solver
          6988 MiB given to the printing process from OS
           464 MiB allocation reported by mallinfo(arena+hblkhd)
          2744 MiB available memory on the node where the printing process lives
------------------
     c_bands:  4 eigenvalues not converged
     ethr =  4.05E-05,  avg # of iterations =  6.9

     total cpu time spent up to now is    14059.9 secs

     total energy              =   -6963.50471251 Ry
     estimated scf accuracy    <       0.31261165 Ry

     iteration # 26     ecut=    50.00 Ry     beta= 0.70
     Davidson diagonalization with overlap

---- Real-time Memory Report at c_bands before calling an iterative solver
          6988 MiB given to the printing process from OS
           464 MiB allocation reported by mallinfo(arena+hblkhd)
          2739 MiB available memory on the node where the printing process lives
------------------
     ethr =  3.87E-05,  avg # of iterations =  3.9

     total cpu time spent up to now is    14587.6 secs

     total energy              =   -6963.36668768 Ry
     estimated scf accuracy    <      17.17929928 Ry

     iteration # 27     ecut=    50.00 Ry     beta= 0.70
     Davidson diagonalization with overlap

---- Real-time Memory Report at c_bands before calling an iterative solver
          6988 MiB given to the printing process from OS
           464 MiB allocation reported by mallinfo(arena+hblkhd)
          2736 MiB available memory on the node where the printing process lives
------------------
     ethr =  3.87E-05,  avg # of iterations =  3.7

     total cpu time spent up to now is    15046.3 secs

     total energy              =   -6963.50811727 Ry
     estimated scf accuracy    <       1.81287203 Ry

     iteration # 28     ecut=    50.00 Ry     beta= 0.70
     Davidson diagonalization with overlap

---- Real-time Memory Report at c_bands before calling an iterative solver
          6988 MiB given to the printing process from OS
           464 MiB allocation reported by mallinfo(arena+hblkhd)
          2727 MiB available memory on the node where the printing process lives
------------------
     c_bands:  1 eigenvalues not converged
     ethr =  3.87E-05,  avg # of iterations =  4.4

     total cpu time spent up to now is    15574.3 secs

     total energy              =   -6963.27493558 Ry
     estimated scf accuracy    <       1.12116127 Ry

     iteration # 29     ecut=    50.00 Ry     beta= 0.70
     Davidson diagonalization with overlap

---- Real-time Memory Report at c_bands before calling an iterative solver
          6988 MiB given to the printing process from OS
           464 MiB allocation reported by mallinfo(arena+hblkhd)
          2724 MiB available memory on the node where the printing process lives
------------------
     ethr =  3.87E-05,  avg # of iterations = 14.6

     total cpu time spent up to now is    16272.0 secs

     total energy              =   -6962.58595501 Ry
     estimated scf accuracy    <      38.64541211 Ry

     iteration # 30     ecut=    50.00 Ry     beta= 0.70
     Davidson diagonalization with overlap

---- Real-time Memory Report at c_bands before calling an iterative solver
          6988 MiB given to the printing process from OS
           464 MiB allocation reported by mallinfo(arena+hblkhd)
          2723 MiB available memory on the node where the printing process lives
------------------
     ethr =  3.87E-05,  avg # of iterations =  4.3

     total cpu time spent up to now is    16842.3 secs

     total energy              =   -6963.49346005 Ry
     estimated scf accuracy    <       0.24094044 Ry

     iteration # 31     ecut=    50.00 Ry     beta= 0.70
     Davidson diagonalization with overlap

---- Real-time Memory Report at c_bands before calling an iterative solver
          6988 MiB given to the printing process from OS
           464 MiB allocation reported by mallinfo(arena+hblkhd)
          2723 MiB available memory on the node where the printing process lives
------------------
     ethr =  2.98E-05,  avg # of iterations =  5.4

     total cpu time spent up to now is    17319.7 secs

     total energy              =   -6963.48553907 Ry
     estimated scf accuracy    <       0.31922002 Ry

     iteration # 32     ecut=    50.00 Ry     beta= 0.70
     Davidson diagonalization with overlap

---- Real-time Memory Report at c_bands before calling an iterative solver
          6988 MiB given to the printing process from OS
           464 MiB allocation reported by mallinfo(arena+hblkhd)
          2723 MiB available memory on the node where the printing process lives
------------------
     ethr =  2.98E-05,  avg # of iterations =  2.0

     total cpu time spent up to now is    17772.7 secs

     total energy              =   -6963.41599493 Ry
     estimated scf accuracy    <       4.78133047 Ry

     iteration # 33     ecut=    50.00 Ry     beta= 0.70
     Davidson diagonalization with overlap

---- Real-time Memory Report at c_bands before calling an iterative solver
          6988 MiB given to the printing process from OS
           464 MiB allocation reported by mallinfo(arena+hblkhd)
          2722 MiB available memory on the node where the printing process lives
------------------
     ethr =  2.98E-05,  avg # of iterations =  2.0

     total cpu time spent up to now is    18241.0 secs

     total energy              =   -6963.50577272 Ry
     estimated scf accuracy    <       0.04547095 Ry

     iteration # 34     ecut=    50.00 Ry     beta= 0.70
     Davidson diagonalization with overlap

---- Real-time Memory Report at c_bands before calling an iterative solver
          6988 MiB given to the printing process from OS
           464 MiB allocation reported by mallinfo(arena+hblkhd)
          2720 MiB available memory on the node where the printing process lives
------------------
     c_bands:  2 eigenvalues not converged
     ethr =  5.63E-06,  avg # of iterations = 11.7

     total cpu time spent up to now is    18871.3 secs

     total energy              =   -6963.49521675 Ry
     estimated scf accuracy    <       0.61265630 Ry

     iteration # 35     ecut=    50.00 Ry     beta= 0.70
     Davidson diagonalization with overlap

---- Real-time Memory Report at c_bands before calling an iterative solver
          6988 MiB given to the printing process from OS
           464 MiB allocation reported by mallinfo(arena+hblkhd)
          2719 MiB available memory on the node where the printing process lives
------------------
     c_bands:  1 eigenvalues not converged
     ethr =  5.63E-06,  avg # of iterations =  7.6

     total cpu time spent up to now is    19347.3 secs

     total energy              =   -6963.50628449 Ry
     estimated scf accuracy    <       0.08183984 Ry

     iteration # 36     ecut=    50.00 Ry     beta= 0.70
     Davidson diagonalization with overlap

---- Real-time Memory Report at c_bands before calling an iterative solver
          6988 MiB given to the printing process from OS
           464 MiB allocation reported by mallinfo(arena+hblkhd)
          2717 MiB available memory on the node where the printing process lives
------------------
     c_bands:  2 eigenvalues not converged
     ethr =  5.63E-06,  avg # of iterations =  4.9

     total cpu time spent up to now is    19813.6 secs

     total energy              =   -6963.49436029 Ry
     estimated scf accuracy    <       0.50221382 Ry

     iteration # 37     ecut=    50.00 Ry     beta= 0.70
     Davidson diagonalization with overlap

---- Real-time Memory Report at c_bands before calling an iterative solver
          6988 MiB given to the printing process from OS
           464 MiB allocation reported by mallinfo(arena+hblkhd)
          2718 MiB available memory on the node where the printing process lives
------------------
     ethr =  5.63E-06,  avg # of iterations =  2.3

     total cpu time spent up to now is    20335.2 secs

     total energy              =   -6963.50185883 Ry
     estimated scf accuracy    <       0.11301879 Ry

     iteration # 38     ecut=    50.00 Ry     beta= 0.70
     Davidson diagonalization with overlap

---- Real-time Memory Report at c_bands before calling an iterative solver
          6988 MiB given to the printing process from OS
           464 MiB allocation reported by mallinfo(arena+hblkhd)
          2717 MiB available memory on the node where the printing process lives
------------------
     ethr =  5.63E-06,  avg # of iterations =  1.9

     total cpu time spent up to now is    20792.9 secs

     total energy              =   -6963.50185276 Ry
     estimated scf accuracy    <       0.01973273 Ry

     iteration # 39     ecut=    50.00 Ry     beta= 0.70
     Davidson diagonalization with overlap

---- Real-time Memory Report at c_bands before calling an iterative solver
          6988 MiB given to the printing process from OS
           464 MiB allocation reported by mallinfo(arena+hblkhd)
          2717 MiB available memory on the node where the printing process lives
------------------
     c_bands:  2 eigenvalues not converged
     c_bands:  2 eigenvalues not converged
     c_bands:  3 eigenvalues not converged
     c_bands:  3 eigenvalues not converged
     ethr =  2.44E-06,  avg # of iterations = 16.4

     total cpu time spent up to now is    21472.0 secs

     total energy              =   -6963.48497258 Ry
     estimated scf accuracy    <       0.37364409 Ry

     iteration # 40     ecut=    50.00 Ry     beta= 0.70
     Davidson diagonalization with overlap

---- Real-time Memory Report at c_bands before calling an iterative solver
          6988 MiB given to the printing process from OS
           464 MiB allocation reported by mallinfo(arena+hblkhd)
          2726 MiB available memory on the node where the printing process lives
------------------
     c_bands:  1 eigenvalues not converged
     ethr =  2.44E-06,  avg # of iterations =  6.1

     total cpu time spent up to now is    22032.0 secs

     total energy              =   -6963.50435505 Ry
     estimated scf accuracy    <       0.05547039 Ry

     iteration # 41     ecut=    50.00 Ry     beta= 0.70
     Davidson diagonalization with overlap

---- Real-time Memory Report at c_bands before calling an iterative solver
          6988 MiB given to the printing process from OS
           464 MiB allocation reported by mallinfo(arena+hblkhd)
          2675 MiB available memory on the node where the printing process lives
------------------
     c_bands:  1 eigenvalues not converged
     ethr =  2.44E-06,  avg # of iterations =  4.9

     total cpu time spent up to now is    22501.7 secs

     total energy              =   -6963.50656577 Ry
     estimated scf accuracy    <       0.02265324 Ry

     iteration # 42     ecut=    50.00 Ry     beta= 0.70
     Davidson diagonalization with overlap

---- Real-time Memory Report at c_bands before calling an iterative solver
          6988 MiB given to the printing process from OS
           464 MiB allocation reported by mallinfo(arena+hblkhd)
          2646 MiB available memory on the node where the printing process lives
------------------
     ethr =  2.44E-06,  avg # of iterations =  2.0

     total cpu time spent up to now is    22966.9 secs

     total energy              =   -6963.50591242 Ry
     estimated scf accuracy    <       0.05463307 Ry

     iteration # 43     ecut=    50.00 Ry     beta= 0.70
     Davidson diagonalization with overlap

---- Real-time Memory Report at c_bands before calling an iterative solver
          6989 MiB given to the printing process from OS
           464 MiB allocation reported by mallinfo(arena+hblkhd)
          2687 MiB available memory on the node where the printing process lives
------------------
     ethr =  2.44E-06,  avg # of iterations =  2.0

     total cpu time spent up to now is    23425.9 secs

     total energy              =   -6963.50758042 Ry
     estimated scf accuracy    <       0.00567632 Ry

     iteration # 44     ecut=    50.00 Ry     beta= 0.70
     Davidson diagonalization with overlap

---- Real-time Memory Report at c_bands before calling an iterative solver
          6989 MiB given to the printing process from OS
           464 MiB allocation reported by mallinfo(arena+hblkhd)
          2701 MiB available memory on the node where the printing process lives
------------------
     ethr =  7.03E-07,  avg # of iterations =  2.3

     total cpu time spent up to now is    23886.5 secs

     total energy              =   -6963.50754888 Ry
     estimated scf accuracy    <       0.00427461 Ry

     iteration # 45     ecut=    50.00 Ry     beta= 0.70
     Davidson diagonalization with overlap

---- Real-time Memory Report at c_bands before calling an iterative solver
          6989 MiB given to the printing process from OS
           464 MiB allocation reported by mallinfo(arena+hblkhd)
          2709 MiB available memory on the node where the printing process lives
------------------
     ethr =  5.29E-07,  avg # of iterations =  1.9

     total cpu time spent up to now is    24337.5 secs

     total energy              =   -6963.50744111 Ry
     estimated scf accuracy    <       0.01793217 Ry

     iteration # 46     ecut=    50.00 Ry     beta= 0.70
     Davidson diagonalization with overlap

---- Real-time Memory Report at c_bands before calling an iterative solver
          6989 MiB given to the printing process from OS
           464 MiB allocation reported by mallinfo(arena+hblkhd)
          2702 MiB available memory on the node where the printing process lives
------------------
     ethr =  5.29E-07,  avg # of iterations =  2.0

     total cpu time spent up to now is    24875.4 secs

     total energy              =   -6963.50780348 Ry
     estimated scf accuracy    <       0.00042473 Ry

     iteration # 47     ecut=    50.00 Ry     beta= 0.70
     Davidson diagonalization with overlap

---- Real-time Memory Report at c_bands before calling an iterative solver
          6989 MiB given to the printing process from OS
           464 MiB allocation reported by mallinfo(arena+hblkhd)
          2701 MiB available memory on the node where the printing process lives
------------------
     ethr =  5.26E-08,  avg # of iterations =  2.0

     total cpu time spent up to now is    25356.9 secs

     total energy              =   -6963.50776621 Ry
     estimated scf accuracy    <       0.00328725 Ry

     iteration # 48     ecut=    50.00 Ry     beta= 0.70
     Davidson diagonalization with overlap

---- Real-time Memory Report at c_bands before calling an iterative solver
          6989 MiB given to the printing process from OS
           464 MiB allocation reported by mallinfo(arena+hblkhd)
          2679 MiB available memory on the node where the printing process lives
------------------
     ethr =  5.26E-08,  avg # of iterations =  1.6

     total cpu time spent up to now is    25805.0 secs

     total energy              =   -6963.50783062 Ry
     estimated scf accuracy    <       0.00034477 Ry

     iteration # 49     ecut=    50.00 Ry     beta= 0.70
     Davidson diagonalization with overlap

---- Real-time Memory Report at c_bands before calling an iterative solver
          6989 MiB given to the printing process from OS
           464 MiB allocation reported by mallinfo(arena+hblkhd)
          2697 MiB available memory on the node where the printing process lives
------------------
     ethr =  4.27E-08,  avg # of iterations =  2.0

     total cpu time spent up to now is    26268.1 secs

     total energy              =   -6963.50782678 Ry
     estimated scf accuracy    <       0.00046946 Ry

     iteration # 50     ecut=    50.00 Ry     beta= 0.70
     Davidson diagonalization with overlap

---- Real-time Memory Report at c_bands before calling an iterative solver
          6989 MiB given to the printing process from OS
           464 MiB allocation reported by mallinfo(arena+hblkhd)
          2716 MiB available memory on the node where the printing process lives
------------------
     ethr =  4.27E-08,  avg # of iterations =  2.4

     total cpu time spent up to now is    26733.8 secs

     total energy              =   -6963.50783979 Ry
     estimated scf accuracy    <       0.00011857 Ry

     iteration # 51     ecut=    50.00 Ry     beta= 0.70
     Davidson diagonalization with overlap

---- Real-time Memory Report at c_bands before calling an iterative solver
          6989 MiB given to the printing process from OS
           464 MiB allocation reported by mallinfo(arena+hblkhd)
          2684 MiB available memory on the node where the printing process lives
------------------
     ethr =  1.47E-08,  avg # of iterations =  2.3

     total cpu time spent up to now is    27262.9 secs

     total energy              =   -6963.50780860 Ry
     estimated scf accuracy    <       0.00072773 Ry

     iteration # 52     ecut=    50.00 Ry     beta= 0.70
     Davidson diagonalization with overlap

---- Real-time Memory Report at c_bands before calling an iterative solver
          6989 MiB given to the printing process from OS
           464 MiB allocation reported by mallinfo(arena+hblkhd)
          2709 MiB available memory on the node where the printing process lives
------------------
     ethr =  1.47E-08,  avg # of iterations =  2.0

     total cpu time spent up to now is    27731.3 secs

     total energy              =   -6963.50781729 Ry
     estimated scf accuracy    <       0.00077365 Ry

     iteration # 53     ecut=    50.00 Ry     beta= 0.70
     Davidson diagonalization with overlap

---- Real-time Memory Report at c_bands before calling an iterative solver
          6989 MiB given to the printing process from OS
           464 MiB allocation reported by mallinfo(arena+hblkhd)
          2691 MiB available memory on the node where the printing process lives
------------------
     ethr =  1.47E-08,  avg # of iterations =  2.0

     total cpu time spent up to now is    28194.2 secs

     total energy              =   -6963.50782459 Ry
     estimated scf accuracy    <       0.00090716 Ry

     iteration # 54     ecut=    50.00 Ry     beta= 0.70
     Davidson diagonalization with overlap

---- Real-time Memory Report at c_bands before calling an iterative solver
          6989 MiB given to the printing process from OS
           464 MiB allocation reported by mallinfo(arena+hblkhd)
          2716 MiB available memory on the node where the printing process lives
------------------
     ethr =  1.47E-08,  avg # of iterations =  2.1

     total cpu time spent up to now is    28653.6 secs

     total energy              =   -6963.50785195 Ry
     estimated scf accuracy    <       0.00001323 Ry

     iteration # 55     ecut=    50.00 Ry     beta= 0.70
     Davidson diagonalization with overlap

---- Real-time Memory Report at c_bands before calling an iterative solver
          6989 MiB given to the printing process from OS
           464 MiB allocation reported by mallinfo(arena+hblkhd)
          2708 MiB available memory on the node where the printing process lives
------------------
     ethr =  1.64E-09,  avg # of iterations =  2.0

     total cpu time spent up to now is    29179.6 secs

     total energy              =   -6963.50785204 Ry
     estimated scf accuracy    <       0.00006556 Ry

     iteration # 56     ecut=    50.00 Ry     beta= 0.70
     Davidson diagonalization with overlap

---- Real-time Memory Report at c_bands before calling an iterative solver
          6989 MiB given to the printing process from OS
           464 MiB allocation reported by mallinfo(arena+hblkhd)
          2712 MiB available memory on the node where the printing process lives
------------------
     ethr =  1.64E-09,  avg # of iterations =  2.0

     total cpu time spent up to now is    29639.1 secs

     total energy              =   -6963.50785325 Ry
     estimated scf accuracy    <       0.00000340 Ry

     iteration # 57     ecut=    50.00 Ry     beta= 0.70
     Davidson diagonalization with overlap

---- Real-time Memory Report at c_bands before calling an iterative solver
          6989 MiB given to the printing process from OS
           464 MiB allocation reported by mallinfo(arena+hblkhd)
          2722 MiB available memory on the node where the printing process lives
------------------
     ethr =  4.21E-10,  avg # of iterations =  2.0

     total cpu time spent up to now is    30102.7 secs

     total energy              =   -6963.50785287 Ry
     estimated scf accuracy    <       0.00000725 Ry

     iteration # 58     ecut=    50.00 Ry     beta= 0.70
     Davidson diagonalization with overlap

---- Real-time Memory Report at c_bands before calling an iterative solver
          6989 MiB given to the printing process from OS
           464 MiB allocation reported by mallinfo(arena+hblkhd)
          2721 MiB available memory on the node where the printing process lives
------------------
     ethr =  4.21E-10,  avg # of iterations =  2.0

     total cpu time spent up to now is    30575.7 secs

     total energy              =   -6963.50785154 Ry
     estimated scf accuracy    <       0.00010130 Ry

     iteration # 59     ecut=    50.00 Ry     beta= 0.70
     Davidson diagonalization with overlap

---- Real-time Memory Report at c_bands before calling an iterative solver
          6989 MiB given to the printing process from OS
           464 MiB allocation reported by mallinfo(arena+hblkhd)
          2701 MiB available memory on the node where the printing process lives
------------------
     ethr =  4.21E-10,  avg # of iterations =  2.0

     total cpu time spent up to now is    31096.5 secs

     total energy              =   -6963.50785344 Ry
     estimated scf accuracy    <       0.00000245 Ry

     iteration # 60     ecut=    50.00 Ry     beta= 0.70
     Davidson diagonalization with overlap

---- Real-time Memory Report at c_bands before calling an iterative solver
          6989 MiB given to the printing process from OS
           464 MiB allocation reported by mallinfo(arena+hblkhd)
          2713 MiB available memory on the node where the printing process lives
------------------
     ethr =  3.03E-10,  avg # of iterations =  2.0

     total cpu time spent up to now is    31557.5 secs

     total energy              =   -6963.50785323 Ry
     estimated scf accuracy    <       0.00000731 Ry

     iteration # 61     ecut=    50.00 Ry     beta= 0.70
     Davidson diagonalization with overlap

---- Real-time Memory Report at c_bands before calling an iterative solver
          6989 MiB given to the printing process from OS
           464 MiB allocation reported by mallinfo(arena+hblkhd)
          2717 MiB available memory on the node where the printing process lives
------------------
     ethr =  3.03E-10,  avg # of iterations =  2.0

     total cpu time spent up to now is    32021.3 secs

     total energy              =   -6963.50785334 Ry
     estimated scf accuracy    <       0.00000579 Ry

     iteration # 62     ecut=    50.00 Ry     beta= 0.70
     Davidson diagonalization with overlap

---- Real-time Memory Report at c_bands before calling an iterative solver
          6989 MiB given to the printing process from OS
           464 MiB allocation reported by mallinfo(arena+hblkhd)
          2678 MiB available memory on the node where the printing process lives
------------------
     ethr =  3.03E-10,  avg # of iterations =  1.4

     total cpu time spent up to now is    32478.3 secs

     End of self-consistent calculation

          k = 0.0000 0.0000 0.0000 ( 52033 PWs)   bands (ev):

   -80.0422 -80.0422 -79.4110 -79.4109 -46.1490 -46.1490 -46.1490 -46.1490
   -46.1370 -46.1365 -45.5470 -45.5470 -45.5469 -45.5469 -45.4589 -45.4585
   -35.8088 -35.8083 -35.8083 -35.8027 -35.8027 -35.8026 -35.3575 -35.3575
   -35.3574 -35.3554 -35.3554 -35.3551 -32.2982 -32.2979 -32.2979 -32.2948
   -32.2948 -32.2947 -31.7219 -31.7219 -31.7219 -31.7189 -31.7189 -31.7188
   -31.2679 -31.2678 -31.2678 -31.2601 -31.2601 -31.2600 -30.5712 -30.5710
   -30.5710 -30.5696 -30.5696 -30.5695 -22.7713 -22.7683 -22.7683 -22.7674
   -22.7674 -22.7646 -22.4536 -22.4493 -22.4493 -22.4400 -22.4400 -22.4350
   -22.2735 -22.2735 -22.2730 -22.2494 -22.2480 -22.2480 -22.1367 -22.1367
   -22.1340 -22.1333 -22.1311 -22.1311 -17.6456 -17.4796 -17.4482 -17.4482
   -17.3855 -17.3855 -17.3609 -17.2422 -17.2422 -17.2349 -17.1859 -17.1859
   -15.6199 -15.4058 -15.4058 -15.3268 -15.2881 -15.2881 -15.2881 -15.1585
   -15.1585 -15.0608 -15.0508 -15.0508 -14.7259 -14.7193 -14.7193 -14.6723
   -14.6723 -14.6701 -14.1125 -14.1046 -14.1046 -14.1019 -14.1019 -14.0981
   -13.9036 -13.9036 -13.9014 -13.8269 -13.8244 -13.8244 -13.5223 -13.5219
   -13.5219 -13.5135 -13.5135 -13.5131 -13.0011 -12.9753 -12.9753 -12.8519
   -12.8519 -12.8219 -12.5467 -12.5219 -12.5219 -12.4155 -12.4155 -12.3962
   -10.9852 -10.9852 -10.9836 -10.9669 -10.9589 -10.9589 -10.7795 -10.7147
   -10.7147 -10.6239 -10.6033 -10.6033 -10.3246 -10.3130 -10.3130 -10.1705
   -10.1705 -10.1573  -9.8193  -9.8193  -9.7996  -9.7011  -9.6896  -9.6896
    -9.4334  -9.4334  -9.4028  -9.2893  -9.2580  -9.2580  -8.9549  -8.9549
    -8.9497  -8.9010  -8.8877  -8.8877  -7.1901  -7.1901  -7.1578  -7.1350
    -7.1085  -7.1085  -6.7713  -6.7713  -6.7487  -6.7253  -6.6803  -6.6803
    -6.5167  -6.5080  -6.5080  -6.4391  -6.4391  -6.3926  -6.1120  -6.1120
    -6.1080  -6.0719  -6.0357  -6.0357  -5.9716  -5.9716  -5.9662  -5.9045
    -5.8606  -5.8606  -5.6351  -5.6180  -5.6180  -5.6118  -5.6039  -5.6039
    -5.5634  -5.5634  -5.5506  -5.5368  -5.4837  -5.4837  -5.4450  -5.2966
    -5.2966  -5.2920  -5.2920  -5.2917  -5.2620  -5.1340  -4.9486  -4.9486
    -4.8284  -4.8284  -4.7039  -4.6641  -4.6641  -4.5694  -4.5542  -4.5542
    -3.5706  -2.9808  -2.8376  -2.6769  -2.6555  -2.6555  -2.6005  -2.6005
    -2.3685  -2.3685  -2.2068  -2.2068  -2.1459  -2.1459  -1.9126  -1.9126
    -1.8786  -1.8786  -1.7576  -1.6027  -1.5446  -1.3733  -1.3733  -1.3636
    -1.3459  -1.3459  -1.3433  -1.2817  -1.2817  -1.2548  -1.2548  -1.2461
    -1.2342  -1.2199  -1.2199  -1.1727  -1.1727  -1.1142  -1.1142  -1.0979
    -1.0926  -1.0799  -1.0799  -0.9967  -0.9935  -0.9935  -0.9523  -0.9522
    -0.9522  -0.9390  -0.9184  -0.9184  -0.8863  -0.8163  -0.7574  -0.7574
    -0.6250  -0.6135  -0.6091  -0.6091   1.4117   1.4722   1.4722   1.6729
     1.8717   1.9359   1.9359   1.9577   1.9942   1.9942   2.0066   2.0299
     2.0304   2.0356   2.0356   2.1366   2.1366   2.1742   2.1742   2.1985
     2.2241   2.2241   2.2310   2.2508   2.2508   2.3100   2.3100   2.3218
     2.3715   2.3742   2.3742   2.3816   2.3856   2.3856   2.4000   2.4881
     2.4881   2.5205   2.5458   2.5458   2.5719   2.5976   2.5976   2.6626
     2.6626   2.7286   2.7861   2.7862   2.7862   2.8843   2.8950   2.8950
     2.9003   2.9717   2.9717   2.9823   2.9916   2.9916   3.0067   3.0587
     3.0587   3.0647   3.0647   3.0817   3.1007   3.2039   3.2039   3.2569
     3.2632   3.2632   3.4117   3.4117   5.7655   5.7655   5.7693   5.9892
     5.9892   5.9973   6.0281   6.0281   6.2352   6.2352   6.2442   6.2540
     6.2540   6.2606   6.3852   6.6754   6.6906   6.6906   6.7219   6.7219
     6.8060   7.0181   7.0181   7.0217   7.1177   7.1177   7.1581   7.2460
     7.2461   7.2461   7.2603   7.2603   7.2900   7.3131   7.3522   7.3522
     7.3666   7.3666   7.3717   7.4259   7.4267   7.4322   7.4322   7.4604
     7.4604   7.5007   7.5037   7.5037   7.5698   7.7465   7.7465   7.9060
     7.9060   8.0056   8.0056   8.0588   8.0588   8.4710   8.4710   8.5898
     8.6803   8.9780   9.0141   9.0141   9.0605   9.1054   9.1054   9.1568
     9.1568   9.2159   9.2159   9.3061   9.4912   9.5143   9.5636   9.5636
    10.1095  10.2397  10.2397  10.4935  10.4935  10.4953  10.7183  10.7452
    10.7452  10.7817  11.1369  11.1369  11.5184  11.6493  11.6493  11.6643
    11.7325  11.7325  11.8923  11.8923  11.9838  12.1240  12.1240  12.3105
    12.3925  12.3925  12.4109  12.5851  12.5851  12.6744  12.7937  12.7937
    12.8318  12.8318  12.8478  12.8514  12.8599  12.9138  12.9139  12.9387
    12.9483  12.9484  12.9499  13.0047  13.0050

     occupation numbers 
     1.0000   1.0000   1.0000   1.0000   1.0000   1.0000   1.0000   1.0000
     1.0000   1.0000   1.0000   1.0000   1.0000   1.0000   1.0000   1.0000
     1.0000   1.0000   1.0000   1.0000   1.0000   1.0000   1.0000   1.0000
     1.0000   1.0000   1.0000   1.0000   1.0000   1.0000   1.0000   1.0000
     1.0000   1.0000   1.0000   1.0000   1.0000   1.0000   1.0000   1.0000
     1.0000   1.0000   1.0000   1.0000   1.0000   1.0000   1.0000   1.0000
     1.0000   1.0000   1.0000   1.0000   1.0000   1.0000   1.0000   1.0000
     1.0000   1.0000   1.0000   1.0000   1.0000   1.0000   1.0000   1.0000
     1.0000   1.0000   1.0000   1.0000   1.0000   1.0000   1.0000   1.0000
     1.0000   1.0000   1.0000   1.0000   1.0000   1.0000   1.0000   1.0000
     1.0000   1.0000   1.0000   1.0000   1.0000   1.0000   1.0000   1.0000
     1.0000   1.0000   1.0000   1.0000   1.0000   1.0000   1.0000   1.0000
     1.0000   1.0000   1.0000   1.0000   1.0000   1.0000   1.0000   1.0000
     1.0000   1.0000   1.0000   1.0000   1.0000   1.0000   1.0000   1.0000
     1.0000   1.0000   1.0000   1.0000   1.0000   1.0000   1.0000   1.0000
     1.0000   1.0000   1.0000   1.0000   1.0000   1.0000   1.0000   1.0000
     1.0000   1.0000   1.0000   1.0000   1.0000   1.0000   1.0000   1.0000
     1.0000   1.0000   1.0000   1.0000   1.0000   1.0000   1.0000   1.0000
     1.0000   1.0000   1.0000   1.0000   1.0000   1.0000   1.0000   1.0000
     1.0000   1.0000   1.0000   1.0000   1.0000   1.0000   1.0000   1.0000
     1.0000   1.0000   1.0000   1.0000   1.0000   1.0000   1.0000   1.0000
     1.0000   1.0000   1.0000   1.0000   1.0000   1.0000   1.0000   1.0000
     1.0000   1.0000   1.0000   1.0000   1.0000   1.0000   1.0000   1.0000
     1.0000   1.0000   1.0000   1.0000   1.0000   1.0000   1.0000   1.0000
     1.0000   1.0000   1.0000   1.0000   1.0000   1.0000   1.0000   1.0000
     1.0000   1.0000   1.0000   1.0000   1.0000   1.0000   1.0000   1.0000
     1.0000   1.0000   1.0000   1.0000   1.0000   1.0000   1.0000   1.0000
     1.0000   1.0000   1.0000   1.0000   1.0000   1.0000   1.0000   1.0000
     1.0000   1.0000   1.0000   1.0000   1.0000   1.0000   1.0000   1.0000
     1.0000   1.0000   1.0000   1.0000   1.0000   1.0000   1.0000   1.0000
     1.0000   1.0000   1.0000   1.0000   1.0000   1.0000   1.0000   1.0000
     1.0000   1.0000   1.0000   1.0000   1.0000   1.0000   1.0000   1.0000
     1.0000   1.0000   1.0000   1.0000   1.0000   1.0000   1.0000   1.0000
     1.0000   1.0000   1.0000   1.0000   1.0000   1.0000   1.0000   1.0000
     1.0000   1.0000   1.0000   1.0000   1.0000   1.0000   1.0000   1.0000
     1.0000   1.0000   1.0000   1.0000   1.0000   1.0000   1.0000   1.0000
     1.0000   1.0000   1.0000   1.0000   1.0000   1.0000   1.0000   1.0000
     1.0000   1.0000   1.0000   1.0000   1.0000   1.0000   1.0000   1.0000
     1.0000   1.0000   1.0000   1.0000   1.0000   1.0000   1.0000   1.0000
     1.0000   1.0000   1.0000   1.0000   1.0000   1.0000   1.0000   1.0000
     1.0000   1.0000   1.0000   1.0000   1.0000   1.0000   1.0000   1.0000
     1.0000   1.0000   1.0000   1.0000   1.0000   1.0000   1.0000   1.0000
     1.0000   1.0000   1.0000   1.0000   1.0000   1.0000   1.0000   1.0000
     1.0000   1.0000   1.0000   1.0000   1.0000   1.0000   1.0000   1.0000
     1.0000   1.0000   1.0000   1.0000   1.0000   1.0000   1.0000   1.0000
     1.0000   1.0000   1.0000   1.0000   1.0000   1.0000   1.0000   1.0000
     1.0000   1.0000   1.0000   1.0000   1.0000   1.0000   1.0000   1.0000
     1.0000   1.0000   1.0000   1.0000   1.0000   1.0000   1.0000   1.0000
     1.0000   1.0000   1.0000   1.0000   1.0000   1.0000   1.0000   1.0094
     1.0095   1.0095   1.0183   1.0183   1.0519   1.0797   1.0169   1.0169
     0.9267   0.9267   0.8853   0.3263   0.3187   0.2716   0.2716   0.0987
     0.0987   0.0133   0.0111   0.0111   0.0001   0.0000   0.0000   0.0000
     0.0000   0.0000   0.0000   0.0000   0.0000   0.0000   0.0000   0.0000
     0.0000   0.0000   0.0000   0.0000   0.0000   0.0000   0.0000   0.0000
     0.0000   0.0000   0.0000   0.0000   0.0000   0.0000   0.0000   0.0000
     0.0000   0.0000   0.0000   0.0000   0.0000   0.0000   0.0000   0.0000
     0.0000   0.0000   0.0000   0.0000   0.0000   0.0000   0.0000   0.0000
     0.0000   0.0000   0.0000   0.0000   0.0000   0.0000   0.0000   0.0000
     0.0000   0.0000   0.0000   0.0000   0.0000   0.0000   0.0000   0.0000
     0.0000   0.0000   0.0000   0.0000   0.0000   0.0000   0.0000   0.0000
     0.0000   0.0000   0.0000   0.0000   0.0000

          k = 0.0000 0.0000 0.4963 ( 51721 PWs)   bands (ev):

   -80.0422 -80.0421 -79.4109 -79.4109 -46.1488 -46.1488 -46.1488 -46.1488
   -46.1367 -46.1363 -45.5468 -45.5468 -45.5467 -45.5467 -45.4586 -45.4583
   -35.8065 -35.8062 -35.8062 -35.8034 -35.8034 -35.8034 -35.3578 -35.3578
   -35.3577 -35.3568 -35.3568 -35.3565 -32.2950 -32.2949 -32.2949 -32.2933
   -32.2933 -32.2933 -31.7216 -31.7216 -31.7216 -31.7201 -31.7201 -31.7201
   -31.2669 -31.2668 -31.2668 -31.2629 -31.2629 -31.2629 -30.5713 -30.5712
   -30.5712 -30.5705 -30.5705 -30.5704 -22.7515 -22.7497 -22.7497 -22.7493
   -22.7493 -22.7478 -22.4759 -22.4738 -22.4738 -22.4691 -22.4691 -22.4664
   -22.2679 -22.2678 -22.2678 -22.2577 -22.2571 -22.2571 -22.1230 -22.1230
   -22.1229 -22.1221 -22.1221 -22.1216 -17.6077 -17.5251 -17.4331 -17.4331
   -17.4017 -17.4017 -17.3313 -17.2685 -17.2285 -17.2285 -17.2003 -17.2003
   -15.5434 -15.3973 -15.3758 -15.3758 -15.3170 -15.3170 -15.2302 -15.1318
   -15.1318 -15.1168 -15.0779 -15.0779 -14.7112 -14.7070 -14.7070 -14.6835
   -14.6835 -14.6833 -14.1230 -14.1187 -14.1187 -14.1162 -14.1162 -14.1152
   -13.8699 -13.8699 -13.8696 -13.8323 -13.8310 -13.8310 -13.5177 -13.5174
[...]
     atom   74 type  3   force =     0.00000000    0.00000000    0.00000000
     atom   75 type  3   force =     0.00000000    0.00000000    0.00000000
     atom   76 type  3   force =     0.00000000    0.00000000    0.00000000
     atom   77 type  1   force =     0.00000000    0.00000000    0.00000000
     atom   78 type  1   force =     0.00000000    0.00000000    0.00000000
     atom   79 type  1   force =     0.00000000    0.00000000    0.00000000
     atom   80 type  1   force =     0.00000000    0.00000000    0.00000000
     atom   81 type  1   force =     0.00000000    0.00000000    0.00000000
     atom   82 type  1   force =     0.00000000    0.00000000    0.00000000
     atom   83 type  1   force =     0.00000000    0.00000000    0.00000000
     atom   84 type  1   force =     0.00000000    0.00000000    0.00000000
     atom   85 type  1   force =     0.00000000    0.00000000    0.00000000
     atom   86 type  1   force =     0.00000000    0.00000000    0.00000000
     atom   87 type  1   force =     0.00000000    0.00000000    0.00000000
     atom   88 type  1   force =     0.00000000    0.00000000    0.00000000
     atom   89 type  1   force =     0.00000000    0.00000000    0.00000000
     atom   90 type  1   force =     0.00000000    0.00000000    0.00000000
     atom   91 type  1   force =     0.00000000    0.00000000    0.00000000
     atom   92 type  1   force =     0.00000000    0.00000000    0.00000000
     atom   93 type  1   force =     0.00000000    0.00000000    0.00000000
     atom   94 type  1   force =     0.00000000    0.00000000    0.00000000
     atom   95 type  1   force =     0.00000000    0.00000000    0.00000000
     atom   96 type  1   force =     0.00000000    0.00000000    0.00000000
     atom   97 type  1   force =     0.00000000    0.00000000    0.00000000
     atom   98 type  1   force =     0.00000000    0.00000000    0.00000000
     atom   99 type  1   force =     0.00000000    0.00000000    0.00000000
     atom  100 type  1   force =     0.00000000    0.00000000    0.00000000
     atom  101 type  4   force =     0.00000000    0.00000000    0.00000000
     atom  102 type  4   force =     0.00000000    0.00000000    0.00000000
     atom  103 type  4   force =     0.00000000    0.00000000    0.00000000
     atom  104 type  4   force =     0.00000000    0.00000000    0.00000000
     atom  105 type  4   force =     0.00000000    0.00000000    0.00000000
     atom  106 type  4   force =     0.00000000    0.00000000    0.00000000
     atom  107 type  4   force =     0.00000000    0.00000000    0.00000000
     atom  108 type  4   force =     0.00000000    0.00000000    0.00000000
     atom  109 type  4   force =     0.00000000    0.00000000    0.00000000
     atom  110 type  4   force =     0.00000000    0.00000000    0.00000000
     atom  111 type  4   force =     0.00000000    0.00000000    0.00000000
     atom  112 type  4   force =     0.00000000    0.00000000    0.00000000
     atom  113 type  4   force =     0.00000000    0.00000000    0.00000000
     atom  114 type  4   force =     0.00000000    0.00000000    0.00000000
     atom  115 type  4   force =     0.00000000    0.00000000    0.00000000
     atom  116 type  4   force =     0.00000000    0.00000000    0.00000000
     atom  117 type  4   force =     0.00000000    0.00000000    0.00000000
     atom  118 type  4   force =     0.00000000    0.00000000    0.00000000
     atom  119 type  4   force =     0.00000000    0.00000000    0.00000000
     atom  120 type  4   force =     0.00000000    0.00000000    0.00000000
     atom  121 type  4   force =     0.00000000    0.00000000    0.00000000
     atom  122 type  4   force =     0.00000000    0.00000000    0.00000000
     atom  123 type  4   force =     0.00000000    0.00000000    0.00000000
     atom  124 type  4   force =     0.00000000    0.00000000    0.00000000
     The SCF correction term to forces
     atom    1 type  2   force =     0.00000000    0.00000000   -0.00000159
     atom    2 type  2   force =     0.00000000    0.00000000   -0.00000159
     atom    3 type  2   force =     0.00000000    0.00000000    0.00000412
     atom    4 type  2   force =     0.00000000   -0.00000000    0.00000412
     atom    5 type  3   force =     0.00008329    0.00002793    0.00006211
     atom    6 type  3   force =    -0.00001746    0.00008610    0.00006211
     atom    7 type  3   force =    -0.00006583   -0.00005817    0.00006211
     atom    8 type  3   force =     0.00008329   -0.00002793    0.00006211
     atom    9 type  3   force =    -0.00006583    0.00005817    0.00006211
     atom   10 type  3   force =    -0.00001746   -0.00008610    0.00006211
     atom   11 type  3   force =     0.00000138    0.00004512    0.00006003
     atom   12 type  3   force =     0.00003838    0.00002376    0.00006003
     atom   13 type  3   force =    -0.00003976    0.00002136    0.00006003
     atom   14 type  3   force =     0.00000138   -0.00004512    0.00006003
     atom   15 type  3   force =    -0.00003976   -0.00002136    0.00006003
     atom   16 type  3   force =     0.00003838   -0.00002376    0.00006003
     atom   17 type  3   force =     0.00004592    0.00005375   -0.00003262
     atom   18 type  3   force =     0.00002359    0.00006664   -0.00003262
     atom   19 type  3   force =    -0.00006951   -0.00001289   -0.00003262
     atom   20 type  3   force =     0.00004592   -0.00005375   -0.00003262
     atom   21 type  3   force =    -0.00006951    0.00001289   -0.00003262
     atom   22 type  3   force =     0.00002359   -0.00006664   -0.00003262
     atom   23 type  3   force =     0.00003323    0.00004556    0.00008045
     atom   24 type  3   force =     0.00002285    0.00005156    0.00008045
     atom   25 type  3   force =    -0.00005608   -0.00000600    0.00008045
     atom   26 type  3   force =     0.00003323   -0.00004556    0.00008045
     atom   27 type  3   force =    -0.00005608    0.00000600    0.00008045
     atom   28 type  3   force =     0.00002285   -0.00005156    0.00008045
     atom   29 type  3   force =    -0.00004534    0.00007459    0.00002820
     atom   30 type  3   force =     0.00008727   -0.00000197    0.00002820
     atom   31 type  3   force =    -0.00004193    0.00007657    0.00002820
     atom   32 type  3   force =    -0.00004534   -0.00007459    0.00002820
     atom   33 type  3   force =    -0.00004193   -0.00007657    0.00002820
     atom   34 type  3   force =     0.00008727    0.00000197    0.00002820
     atom   35 type  3   force =     0.00002539    0.00004222   -0.00001134
     atom   36 type  3   force =     0.00002386    0.00004309   -0.00001134
     atom   37 type  3   force =    -0.00004925   -0.00000088   -0.00001134
     atom   38 type  3   force =     0.00002539   -0.00004222   -0.00001134
     atom   39 type  3   force =    -0.00004925    0.00000088   -0.00001134
     atom   40 type  3   force =     0.00002386   -0.00004309   -0.00001134
     atom   41 type  3   force =    -0.00009999    0.00003218   -0.00001628
     atom   42 type  3   force =     0.00007786   -0.00007050   -0.00001628
     atom   43 type  3   force =     0.00002212    0.00010268   -0.00001628
     atom   44 type  3   force =    -0.00009999   -0.00003218   -0.00001628
     atom   45 type  3   force =     0.00002212   -0.00010268   -0.00001628
     atom   46 type  3   force =     0.00007786    0.00007050   -0.00001628
     atom   47 type  3   force =     0.00001074   -0.00000621    0.00000299
     atom   48 type  3   force =    -0.00001075    0.00000620    0.00000299
     atom   49 type  3   force =     0.00000001   -0.00001241    0.00000299
     atom   50 type  3   force =     0.00001074    0.00000621    0.00000299
     atom   51 type  3   force =     0.00000001    0.00001241    0.00000299
     atom   52 type  3   force =    -0.00001075   -0.00000620    0.00000299
     atom   53 type  3   force =    -0.00010073    0.00002239   -0.00002544
     atom   54 type  3   force =     0.00006975   -0.00007604   -0.00002544
     atom   55 type  3   force =     0.00003098    0.00009843   -0.00002544
     atom   56 type  3   force =    -0.00010073   -0.00002239   -0.00002544
     atom   57 type  3   force =     0.00003098   -0.00009843   -0.00002544
     atom   58 type  3   force =     0.00006975    0.00007604   -0.00002544
     atom   59 type  3   force =    -0.00007931    0.00004212   -0.00007099
     atom   60 type  3   force =     0.00007613   -0.00004762   -0.00007099
     atom   61 type  3   force =     0.00000318    0.00008974   -0.00007099
     atom   62 type  3   force =    -0.00007931   -0.00004212   -0.00007099
     atom   63 type  3   force =     0.00000318   -0.00008974   -0.00007099
     atom   64 type  3   force =     0.00007613    0.00004762   -0.00007099
     atom   65 type  3   force =     0.00002266    0.00000909   -0.00000514
     atom   66 type  3   force =    -0.00000345    0.00002417   -0.00000514
     atom   67 type  3   force =    -0.00001921   -0.00001508   -0.00000514
     atom   68 type  3   force =     0.00002266   -0.00000909   -0.00000514
     atom   69 type  3   force =    -0.00001921    0.00001508   -0.00000514
     atom   70 type  3   force =    -0.00000345   -0.00002417   -0.00000514
     atom   71 type  3   force =    -0.00005578    0.00000700   -0.00002354
     atom   72 type  3   force =     0.00003395   -0.00004481   -0.00002354
     atom   73 type  3   force =     0.00002183    0.00005181   -0.00002354
     atom   74 type  3   force =    -0.00005578   -0.00000700   -0.00002354
     atom   75 type  3   force =     0.00002183   -0.00005181   -0.00002354
     atom   76 type  3   force =     0.00003395    0.00004481   -0.00002354
     atom   77 type  1   force =    -0.00000288    0.00011483    0.00003613
     atom   78 type  1   force =     0.00010089    0.00005492    0.00003613
     atom   79 type  1   force =    -0.00009801    0.00005991    0.00003613
     atom   80 type  1   force =    -0.00000288   -0.00011483    0.00003613
     atom   81 type  1   force =    -0.00009801   -0.00005991    0.00003613
     atom   82 type  1   force =     0.00010089   -0.00005492    0.00003613
     atom   83 type  1   force =    -0.00001072    0.00013400   -0.00003046
     atom   84 type  1   force =     0.00012141    0.00005771   -0.00003046
     atom   85 type  1   force =    -0.00011068    0.00007629   -0.00003046
     atom   86 type  1   force =    -0.00001072   -0.00013400   -0.00003046
     atom   87 type  1   force =    -0.00011068   -0.00007629   -0.00003046
     atom   88 type  1   force =     0.00012141   -0.00005771   -0.00003046
     atom   89 type  1   force =    -0.00000922   -0.00003101   -0.00003149
     atom   90 type  1   force =    -0.00002225   -0.00002349   -0.00003149
     atom   91 type  1   force =     0.00003147   -0.00000752   -0.00003149
     atom   92 type  1   force =    -0.00000922    0.00003101   -0.00003149
     atom   93 type  1   force =     0.00003147    0.00000752   -0.00003149
     atom   94 type  1   force =    -0.00002225    0.00002349   -0.00003149
     atom   95 type  1   force =    -0.00000886   -0.00002997    0.00002870
     atom   96 type  1   force =    -0.00002152   -0.00002266    0.00002870
     atom   97 type  1   force =     0.00003039   -0.00000731    0.00002870
     atom   98 type  1   force =    -0.00000886    0.00002997    0.00002870
     atom   99 type  1   force =     0.00003039    0.00000731    0.00002870
     atom  100 type  1   force =    -0.00002152    0.00002266    0.00002870
     atom  101 type  4   force =     0.00001718    0.00004416    0.00004036
     atom  102 type  4   force =     0.00002966    0.00003696    0.00004036
     atom  103 type  4   force =    -0.00004684    0.00000720    0.00004036
     atom  104 type  4   force =     0.00001718   -0.00004416    0.00004036
     atom  105 type  4   force =    -0.00004684   -0.00000720    0.00004036
     atom  106 type  4   force =     0.00002966   -0.00003696    0.00004036
     atom  107 type  4   force =     0.00000471    0.00005831    0.00000326
     atom  108 type  4   force =     0.00004814    0.00003324    0.00000326
     atom  109 type  4   force =    -0.00005286    0.00002508    0.00000326
     atom  110 type  4   force =     0.00000471   -0.00005831    0.00000326
     atom  111 type  4   force =    -0.00005286   -0.00002508    0.00000326
     atom  112 type  4   force =     0.00004814   -0.00003324    0.00000326
     atom  113 type  4   force =    -0.00002975   -0.00000744   -0.00002097
     atom  114 type  4   force =     0.00000843   -0.00002949   -0.00002097
     atom  115 type  4   force =     0.00002132    0.00002204   -0.00002097
     atom  116 type  4   force =    -0.00002975    0.00000744   -0.00002097
     atom  117 type  4   force =     0.00002132   -0.00002204   -0.00002097
     atom  118 type  4   force =     0.00000843    0.00002949   -0.00002097
     atom  119 type  4   force =    -0.00000805   -0.00001539   -0.00000234
     atom  120 type  4   force =    -0.00000930   -0.00001466   -0.00000234
     atom  121 type  4   force =     0.00001735   -0.00000073   -0.00000234
     atom  122 type  4   force =    -0.00000805    0.00001539   -0.00000234
     atom  123 type  4   force =     0.00001735    0.00000073   -0.00000234
     atom  124 type  4   force =    -0.00000930    0.00001466   -0.00000234

     Total force =    17.432668     Total SCF correction =     0.000885


     Computing stress (Cartesian axis) and pressure

          total   stress  (Ry/bohr**3)                   (kbar)     P=     2011.40
   0.01051298   0.00000000   0.00000000         1546.51        0.00        0.00
   0.00000000   0.01051298   0.00000000            0.00     1546.51        0.00
  -0.00000000   0.00000000   0.01999372           -0.00        0.00     2941.18

     kinetic stress (kbar)  28475.52     -0.00     -0.00
                               -0.00  28475.52      0.00
                                0.00      0.00  28011.78

     local   stress (kbar) -19101.82     -0.00      0.00
                               -0.00 -19101.82      0.00
                                0.00      0.00 -83594.14

     nonloc. stress (kbar)   7313.18      0.00      0.00
                                0.00   7313.18      0.00
                                0.00      0.00   7047.91

     hartree stress (kbar)  12195.62      0.00      0.00
                                0.00  12195.62      0.00
                                0.00      0.00  39224.49

     exc-cor stress (kbar)  -4887.08      0.00      0.00
                                0.00  -4887.08      0.00
                                0.00      0.00  -4837.94

     corecor stress (kbar)  -1025.65      0.00      0.00
                                0.00  -1025.65     -0.00
                                0.00     -0.00  -1026.13

     ewald   stress (kbar) -21423.25      0.00      0.00
                                0.00 -21423.25     -0.00
                                0.00     -0.00  18115.21

     hubbard stress (kbar)      0.00      0.00      0.00
                                0.00      0.00      0.00
                                0.00      0.00      0.00

     DFT-D   stress (kbar)      0.00      0.00      0.00
                                0.00      0.00      0.00
                                0.00      0.00      0.00

     XDM     stress (kbar)      0.00      0.00      0.00
                                0.00      0.00      0.00
                                0.00      0.00      0.00

     dft-nl  stress (kbar)      0.00      0.00      0.00
                                0.00      0.00      0.00
                                0.00      0.00      0.00

     TS-vdW  stress (kbar)      0.00      0.00      0.00
                                0.00      0.00      0.00
                                0.00      0.00      0.00

     MDB     stress (kbar)      0.00      0.00      0.00
                                0.00      0.00      0.00
                                0.00      0.00      0.00

     3D-RISM stress (kbar)      0.00      0.00      0.00
                                0.00      0.00      0.00
                                0.00      0.00      0.00


     Writing all to output data dir ./energyiron.save/

     init_run     :    966.85s CPU    321.22s WALL (       1 calls)
     electrons    : 116749.28s CPU  32156.69s WALL (       1 calls)
     forces       :    306.68s CPU    157.56s WALL (       1 calls)
     stress       :   7408.44s CPU   1978.38s WALL (       1 calls)

     Called by init_run:
     wfcinit      :    888.93s CPU    271.34s WALL (       1 calls)
     wfcinit:atom :      2.60s CPU      3.83s WALL (       7 calls)
     wfcinit:wfcr :    866.34s CPU    245.54s WALL (       7 calls)
     potinit      :     30.54s CPU     10.24s WALL (       1 calls)
     hinit0       :     20.67s CPU     12.21s WALL (       1 calls)

     Called by electrons:
     c_bands      :  99403.65s CPU  27148.17s WALL (      62 calls)
     sum_band     :  16127.73s CPU   4383.53s WALL (      62 calls)
     v_of_rho     :    159.71s CPU     58.75s WALL (      63 calls)
     v_h          :      8.55s CPU      3.12s WALL (      63 calls)
     v_xc         :    155.75s CPU     57.44s WALL (      65 calls)
     newd         :    379.24s CPU    344.40s WALL (      63 calls)
     PAW_pot      :    694.44s CPU    168.90s WALL (      63 calls)
     mix_rho      :     18.82s CPU     10.33s WALL (      62 calls)

     Called by c_bands:
     init_us_2    :    190.61s CPU    285.57s WALL (     889 calls)
     init_us_2:cp :    190.60s CPU    285.55s WALL (     889 calls)
     cegterg      :  98776.27s CPU  26917.03s WALL (     437 calls)

     Called by sum_band:
     sum_band:wei :      0.61s CPU      0.63s WALL (      62 calls)
     sum_band:loo :  15695.09s CPU   3858.52s WALL (      62 calls)
     sum_band:buf :     43.54s CPU    115.34s WALL (     434 calls)
     sum_band:ini :     93.92s CPU    176.09s WALL (     434 calls)
     sum_band:cal :   3358.56s CPU    650.14s WALL (     434 calls)
     sum_band:bec :    139.48s CPU     57.59s WALL (     434 calls)
     addusdens    :    413.58s CPU    511.81s WALL (      62 calls)
                                        0.00s GPU  (      62 calls)
     addusd:skk   :     26.82s CPU     51.76s WALL (     248 calls)
                                        0.00s GPU  (     248 calls)

     Called by *egterg:
     cdiaghg      :   1540.02s CPU    906.22s WALL (    1967 calls)
     cegterg:over :   7476.81s CPU   2199.30s WALL (    1530 calls)
     cegterg:upda :   4121.68s CPU   1189.00s WALL (    1530 calls)
     cegterg:last :  11380.79s CPU   2731.07s WALL (     855 calls)
     h_psi        :  63692.37s CPU  16808.03s WALL (    1974 calls)
     s_psi        :   7626.73s CPU   1954.60s WALL (    1974 calls)
     g_psi        :    145.72s CPU     34.07s WALL (    1530 calls)

     Called by h_psi:
     h_psi:calbec :   7703.96s CPU   1636.52s WALL (    1974 calls)
     vloc_psi     :  48250.57s CPU  12844.29s WALL (    1974 calls)
     add_vuspsi   :   7577.10s CPU   2172.85s WALL (    1974 calls)

     General routines
     calbec       :  11337.02s CPU   2367.47s WALL (    2443 calls)
     fft          :     46.78s CPU     14.86s WALL (     842 calls)
     ffts         :      6.50s CPU      2.40s WALL (     125 calls)
     fftw         :  44964.46s CPU  12245.56s WALL ( 1144792 calls)
     interpolate  :     10.05s CPU     60.91s WALL (      63 calls)

     Parallel routines

     PAW routines
     PAW_pot      :    694.44s CPU    168.90s WALL (      63 calls)
     PAW_symme    :      0.51s CPU      0.14s WALL (     125 calls)

     PWSCF        :   1d10h50m CPU      9h37m WALL


   This run was terminated on:  16:33: 1   4Feb2026            

=------------------------------------------------------------------------------=
   JOB DONE.
=------------------------------------------------------------------------------=
