
     Program PWSCF v.7.2 starts on 12Feb2026 at 22: 7:18 

     This program is part of the open-source Quantum ESPRESSO suite
     for quantum simulation of materials; please cite
         "P. Giannozzi et al., J. Phys.:Condens. Matter 21 395502 (2009);
         "P. Giannozzi et al., J. Phys.:Condens. Matter 29 465901 (2017);
         "P. Giannozzi et al., J. Chem. Phys. 152 154105 (2020);
          URL http://www.quantum-espresso.org", 
     in publications or presentations arising from this work. More details at
     http://www.quantum-espresso.org/quote

     Parallel version (MPI & OpenMP), running on       4 processor cores
     Number of MPI processes:                 1
     Threads/MPI process:                     4

     MPI processes distributed on     1 nodes
     3473 MiB available memory on the printing compute node when the environment starts

     Reading input from iron3TFAconv.in

     Current dimensions of program PWSCF are:
     Max number of different atomic species (ntypx) = 10
     Max number of k-points (npk) =  40000
     Max angular momentum in pseudopotentials (lmaxx) =  4
     file F.pbe-n-kjpaw_psl.1.0.0.UPF: wavefunction(s)  2S 2P renormalized
     file C.pbe-n-kjpaw_psl.1.0.0.UPF: wavefunction(s)  2S 2P renormalized
     file Fe.pbesol-spn-kjpaw_psl.1.0.0.UPF: wavefunction(s)  3P 3D renormalized
     file O.pbe-n-kjpaw_psl.1.0.0.UPF: wavefunction(s)  2S 2P renormalized
     file H.pbe-kjpaw_psl.1.0.0.UPF: wavefunction(s)  1S renormalized

     IMPORTANT: XC functional enforced from input :
     Exchange-correlation= PBE
                           (   1   4   3   4   0   0   0)
     Any further DFT definition will be discarded
     Please, verify this is what you really want


     Subspace diagonalization in iterative solution of the eigenvalue problem:
     a serial algorithm will be used


     G-vector sticks info
     --------------------
     sticks:   dense  smooth     PW     G-vecs:    dense   smooth      PW
     Sum       10501    5997   1597               809479   349419   47937

     Using Slab Decomposition



     bravais-lattice index     =            0
     lattice parameter (alat)  =      19.4150  a.u.
     unit-cell volume          =    7318.3855 (a.u.)^3
     number of atoms/cell      =           25
     number of atomic types    =            5
     number of electrons       =       142.00
     number of Kohn-Sham states=           85
     kinetic-energy cutoff     =      50.0000  Ry
     charge density cutoff     =     350.0000  Ry
     scf convergence threshold =      1.0E-06
     mixing beta               =       0.7000
     number of iterations used =            8  plain     mixing
     Exchange-correlation= PBE
                           (   1   4   3   4   0   0   0)

     celldm(1)=  19.415046  celldm(2)=   0.000000  celldm(3)=   0.000000
     celldm(4)=   0.000000  celldm(5)=   0.000000  celldm(6)=   0.000000

     crystal axes: (cart. coord. in units of alat)
               a(1) = (   1.000000   0.000000   0.000000 )  
               a(2) = (   0.000000   1.000000   0.000000 )  
               a(3) = (   0.000000   0.000000   1.000000 )  

     reciprocal axes: (cart. coord. in units 2 pi/alat)
               b(1) = (  1.000000  0.000000  0.000000 )  
               b(2) = (  0.000000  1.000000  0.000000 )  
               b(3) = (  0.000000  0.000000  1.000000 )  


     PseudoPot. # 1 for F  read from file:
     ./F.pbe-n-kjpaw_psl.1.0.0.UPF
     MD5 check sum: 66d718ea72839a4268ab2a9540e8cdd4
     Pseudo is Projector augmented-wave + core cor, Zval =  7.0
     Generated using &quot;atomic&quot; code by A. Dal Corso  v.6.3
     Shape of augmentation charge: PSQ
     Using radial grid of 1105 points,  4 beta functions with: 
                l(1) =   0
                l(2) =   0
                l(3) =   1
                l(4) =   1
     Q(r) pseudized with 0 coefficients 


     PseudoPot. # 2 for C  read from file:
     ./C.pbe-n-kjpaw_psl.1.0.0.UPF
     MD5 check sum: 5f16ad9a65e90284d1d834d4ab3b0f7d
     Pseudo is Projector augmented-wave + core cor, Zval =  4.0
     Generated using &quot;atomic&quot; code by A. Dal Corso  v.6.3
     Shape of augmentation charge: PSQ
     Using radial grid of 1073 points,  4 beta functions with: 
                l(1) =   0
                l(2) =   0
                l(3) =   1
                l(4) =   1
     Q(r) pseudized with 0 coefficients 


     PseudoPot. # 3 for Fe read from file:
     ./Fe.pbesol-spn-kjpaw_psl.1.0.0.UPF
     MD5 check sum: e30d5f36a6f0cb983ee41abee56170da
     Pseudo is Projector augmented-wave + core cor, Zval = 16.0
     Generated using &quot;atomic&quot; code by A. Dal Corso  v.6.3
     Shape of augmentation charge: PSQ
     Using radial grid of 1191 points,  6 beta functions with: 
                l(1) =   0
                l(2) =   0
                l(3) =   1
                l(4) =   1
                l(5) =   2
                l(6) =   2
     Q(r) pseudized with 0 coefficients 


     PseudoPot. # 4 for O  read from file:
     ./O.pbe-n-kjpaw_psl.1.0.0.UPF
     MD5 check sum: e99d9cef9b487d1ca56f5b95ecd0fd7a
     Pseudo is Projector augmented-wave + core cor, Zval =  6.0
     Generated using &quot;atomic&quot; code by A. Dal Corso  v.6.3
     Shape of augmentation charge: PSQ
     Using radial grid of 1095 points,  4 beta functions with: 
                l(1) =   0
                l(2) =   0
                l(3) =   1
                l(4) =   1
     Q(r) pseudized with 0 coefficients 


     PseudoPot. # 5 for H  read from file:
     ./H.pbe-kjpaw_psl.1.0.0.UPF
     MD5 check sum: d81a744832360e4a8af0b0b5b123bc2a
     Pseudo is Projector augmented-wave, Zval =  1.0
     Generated using &quot;atomic&quot; code by A. Dal Corso  v.6.3MaX
     Shape of augmentation charge: PSQ
     Using radial grid of  929 points,  2 beta functions with: 
                l(1) =   0
                l(2) =   0
     Q(r) pseudized with 0 coefficients 


     atomic species   valence    mass     pseudopotential
        F              7.00    18.99800     F ( 1.00)
        C              4.00    12.01060     C ( 1.00)
        Fe            16.00    55.84500     Fe( 1.00)
        O              6.00    15.99900     O ( 1.00)
        H              1.00     1.00750     H ( 1.00)

     No symmetry found


                                    s                        frac. trans.

      isym =  1     identity                                     

 cryst.   s( 1) = (     1          0          0      )
                  (     0          1          0      )
                  (     0          0          1      )

 cart.    s( 1) = (  1.0000000  0.0000000  0.0000000 )
                  (  0.0000000  1.0000000  0.0000000 )
                  (  0.0000000  0.0000000  1.0000000 )


   Cartesian axes

     site n.     atom                  positions (alat units)
         1           Fe  tau(   1) = (   0.3011140   0.2869820   0.4329470  )
         2           F   tau(   2) = (   0.4273550   0.7390840   0.6992310  )
         3           F   tau(   3) = (   0.2578790   0.7694030   0.5726980  )
         4           F   tau(   4) = (   0.2420240   0.6420720   0.7431190  )
         5           F   tau(   5) = (   0.5896390   0.5830790   0.2487440  )
         6           F   tau(   6) = (   0.5320370   0.4370690   0.1000000  )
         7           F   tau(   7) = (   0.4000830   0.4843630   0.2591690  )
         8           F   tau(   8) = (   0.5750290   0.3451480   0.8650180  )
         9           F   tau(   9) = (   0.3889580   0.4278910   0.8022780  )
        10           F   tau(  10) = (   0.3911860   0.2387920   0.9000000  )
        11           O   tau(  11) = (   0.3029440   0.4710770   0.5113690  )
        12           O   tau(  12) = (   0.4986230   0.5518640   0.5493670  )
        13           O   tau(  13) = (   0.4826110   0.2880620   0.3620790  )
        14           O   tau(  14) = (   0.6939220   0.3547160   0.3616610  )
        15           O   tau(  15) = (   0.3749510   0.2426460   0.6013140  )
        16           O   tau(  16) = (   0.5878870   0.2305970   0.6345730  )
        17           C   tau(  17) = (   0.3666000   0.5620940   0.5626730  )
        18           C   tau(  18) = (   0.3212920   0.6815020   0.6463010  )
        19           C   tau(  19) = (   0.5720410   0.3595530   0.3168000  )
        20           C   tau(  20) = (   0.5304510   0.4692960   0.2262510  )
        21           C   tau(  21) = (   0.4673010   0.2533430   0.6807570  )
        22           C   tau(  22) = (   0.4570420   0.3150720   0.8170240  )
        23           H   tau(  23) = (   0.5444670   0.6263920   0.5934110  )
        24           H   tau(  24) = (   0.7579760   0.4181960   0.3266890  )
        25           H   tau(  25) = (   0.6598650   0.2429380   0.6987150  )

   Crystallographic axes

     site n.     atom                  positions (cryst. coord.)
         1           Fe  tau(   1) = (  0.3011140  0.2869820  0.4329470  )
         2           F   tau(   2) = (  0.4273550  0.7390840  0.6992310  )
         3           F   tau(   3) = (  0.2578790  0.7694030  0.5726980  )
         4           F   tau(   4) = (  0.2420240  0.6420720  0.7431190  )
         5           F   tau(   5) = (  0.5896390  0.5830790  0.2487440  )
         6           F   tau(   6) = (  0.5320370  0.4370690  0.1000000  )
         7           F   tau(   7) = (  0.4000830  0.4843630  0.2591690  )
         8           F   tau(   8) = (  0.5750290  0.3451480  0.8650180  )
         9           F   tau(   9) = (  0.3889580  0.4278910  0.8022780  )
        10           F   tau(  10) = (  0.3911860  0.2387920  0.9000000  )
        11           O   tau(  11) = (  0.3029440  0.4710770  0.5113690  )
        12           O   tau(  12) = (  0.4986230  0.5518640  0.5493670  )
        13           O   tau(  13) = (  0.4826110  0.2880620  0.3620790  )
        14           O   tau(  14) = (  0.6939220  0.3547160  0.3616610  )
        15           O   tau(  15) = (  0.3749510  0.2426460  0.6013140  )
        16           O   tau(  16) = (  0.5878870  0.2305970  0.6345730  )
        17           C   tau(  17) = (  0.3666000  0.5620940  0.5626730  )
        18           C   tau(  18) = (  0.3212920  0.6815020  0.6463010  )
        19           C   tau(  19) = (  0.5720410  0.3595530  0.3168000  )
        20           C   tau(  20) = (  0.5304510  0.4692960  0.2262510  )
        21           C   tau(  21) = (  0.4673010  0.2533430  0.6807570  )
        22           C   tau(  22) = (  0.4570420  0.3150720  0.8170240  )
        23           H   tau(  23) = (  0.5444670  0.6263920  0.5934110  )
        24           H   tau(  24) = (  0.7579760  0.4181960  0.3266890  )
        25           H   tau(  25) = (  0.6598650  0.2429380  0.6987150  )

     number of k points=    63  Marzari-Vanderbilt smearing, width (Ry)=  0.0050
                       cart. coord. in units 2pi/alat
        k(    1) = (   0.0000000   0.0000000   0.0000000), wk =   0.0160000
        k(    2) = (   0.0000000   0.0000000   0.2000000), wk =   0.0320000
        k(    3) = (   0.0000000   0.0000000   0.4000000), wk =   0.0320000
        k(    4) = (   0.0000000   0.2000000   0.2000000), wk =   0.0320000
        k(    5) = (   0.0000000   0.2000000   0.4000000), wk =   0.0320000
        k(    6) = (   0.0000000   0.4000000   0.4000000), wk =   0.0320000
        k(    7) = (   0.2000000   0.2000000   0.2000000), wk =   0.0320000
        k(    8) = (   0.2000000   0.2000000   0.4000000), wk =   0.0320000
        k(    9) = (   0.2000000   0.4000000   0.4000000), wk =   0.0320000
        k(   10) = (   0.4000000   0.4000000   0.4000000), wk =   0.0320000
        k(   11) = (   0.2000000   0.0000000   0.0000000), wk =   0.0320000
        k(   12) = (   0.0000000   0.2000000   0.0000000), wk =   0.0320000
        k(   13) = (   0.4000000   0.0000000   0.0000000), wk =   0.0320000
        k(   14) = (   0.0000000   0.4000000   0.0000000), wk =   0.0320000
        k(   15) = (   0.0000000  -0.2000000   0.2000000), wk =   0.0320000
        k(   16) = (   0.2000000   0.0000000  -0.2000000), wk =   0.0320000
        k(   17) = (  -0.2000000   0.0000000  -0.2000000), wk =   0.0320000
        k(   18) = (   0.2000000  -0.2000000   0.0000000), wk =   0.0320000
        k(   19) = (  -0.2000000  -0.2000000   0.0000000), wk =   0.0320000
        k(   20) = (   0.0000000  -0.2000000   0.4000000), wk =   0.0320000
        k(   21) = (   0.2000000   0.0000000  -0.4000000), wk =   0.0320000
        k(   22) = (  -0.2000000   0.0000000  -0.4000000), wk =   0.0320000
        k(   23) = (   0.4000000  -0.2000000   0.0000000), wk =   0.0320000
        k(   24) = (  -0.4000000  -0.2000000   0.0000000), wk =   0.0320000
        k(   25) = (   0.0000000   0.4000000   0.2000000), wk =   0.0320000
        k(   26) = (   0.0000000   0.4000000  -0.2000000), wk =   0.0320000
        k(   27) = (   0.2000000   0.4000000   0.0000000), wk =   0.0320000
        k(   28) = (  -0.2000000   0.4000000   0.0000000), wk =   0.0320000
        k(   29) = (   0.4000000   0.0000000   0.2000000), wk =   0.0320000
        k(   30) = (   0.4000000   0.0000000  -0.2000000), wk =   0.0320000
        k(   31) = (   0.0000000  -0.4000000   0.4000000), wk =   0.0320000
        k(   32) = (   0.4000000   0.0000000  -0.4000000), wk =   0.0320000
        k(   33) = (  -0.4000000   0.0000000  -0.4000000), wk =   0.0320000
        k(   34) = (   0.4000000  -0.4000000   0.0000000), wk =   0.0320000
        k(   35) = (  -0.4000000  -0.4000000   0.0000000), wk =   0.0320000
        k(   36) = (  -0.2000000  -0.2000000   0.2000000), wk =   0.0320000
        k(   37) = (  -0.2000000   0.2000000  -0.2000000), wk =   0.0320000
        k(   38) = (   0.2000000  -0.2000000  -0.2000000), wk =   0.0320000
        k(   39) = (  -0.2000000  -0.2000000   0.4000000), wk =   0.0320000
        k(   40) = (  -0.2000000   0.2000000  -0.4000000), wk =   0.0320000
        k(   41) = (   0.2000000  -0.2000000  -0.4000000), wk =   0.0320000
        k(   42) = (   0.4000000  -0.2000000   0.2000000), wk =   0.0320000
        k(   43) = (  -0.4000000  -0.2000000  -0.2000000), wk =   0.0320000
        k(   44) = (   0.4000000   0.2000000  -0.2000000), wk =   0.0320000
        k(   45) = (  -0.4000000   0.2000000   0.2000000), wk =   0.0320000
        k(   46) = (  -0.2000000   0.4000000   0.2000000), wk =   0.0320000
        k(   47) = (  -0.2000000  -0.4000000  -0.2000000), wk =   0.0320000
        k(   48) = (   0.2000000   0.4000000  -0.2000000), wk =   0.0320000
        k(   49) = (   0.2000000  -0.4000000   0.2000000), wk =   0.0320000
        k(   50) = (  -0.2000000  -0.4000000   0.4000000), wk =   0.0320000
        k(   51) = (  -0.2000000   0.4000000  -0.4000000), wk =   0.0320000
        k(   52) = (   0.2000000  -0.4000000  -0.4000000), wk =   0.0320000
        k(   53) = (   0.4000000   0.2000000  -0.4000000), wk =   0.0320000
        k(   54) = (  -0.4000000  -0.2000000  -0.4000000), wk =   0.0320000
        k(   55) = (   0.4000000  -0.2000000   0.4000000), wk =   0.0320000
        k(   56) = (  -0.4000000   0.2000000   0.4000000), wk =   0.0320000
        k(   57) = (   0.4000000  -0.4000000   0.2000000), wk =   0.0320000
        k(   58) = (  -0.4000000  -0.4000000  -0.2000000), wk =   0.0320000
        k(   59) = (   0.4000000   0.4000000  -0.2000000), wk =   0.0320000
        k(   60) = (  -0.4000000   0.4000000   0.2000000), wk =   0.0320000
        k(   61) = (  -0.4000000  -0.4000000   0.4000000), wk =   0.0320000
        k(   62) = (  -0.4000000   0.4000000  -0.4000000), wk =   0.0320000
        k(   63) = (   0.4000000  -0.4000000  -0.4000000), wk =   0.0320000

                       cryst. coord.
        k(    1) = (   0.0000000   0.0000000   0.0000000), wk =   0.0160000
        k(    2) = (   0.0000000   0.0000000   0.2000000), wk =   0.0320000
        k(    3) = (   0.0000000   0.0000000   0.4000000), wk =   0.0320000
        k(    4) = (   0.0000000   0.2000000   0.2000000), wk =   0.0320000
        k(    5) = (   0.0000000   0.2000000   0.4000000), wk =   0.0320000
        k(    6) = (   0.0000000   0.4000000   0.4000000), wk =   0.0320000
        k(    7) = (   0.2000000   0.2000000   0.2000000), wk =   0.0320000
        k(    8) = (   0.2000000   0.2000000   0.4000000), wk =   0.0320000
        k(    9) = (   0.2000000   0.4000000   0.4000000), wk =   0.0320000
        k(   10) = (   0.4000000   0.4000000   0.4000000), wk =   0.0320000
        k(   11) = (   0.2000000   0.0000000   0.0000000), wk =   0.0320000
        k(   12) = (   0.0000000   0.2000000   0.0000000), wk =   0.0320000
        k(   13) = (   0.4000000   0.0000000   0.0000000), wk =   0.0320000
        k(   14) = (   0.0000000   0.4000000   0.0000000), wk =   0.0320000
        k(   15) = (   0.0000000  -0.2000000   0.2000000), wk =   0.0320000
        k(   16) = (   0.2000000   0.0000000  -0.2000000), wk =   0.0320000
        k(   17) = (  -0.2000000   0.0000000  -0.2000000), wk =   0.0320000
        k(   18) = (   0.2000000  -0.2000000   0.0000000), wk =   0.0320000
        k(   19) = (  -0.2000000  -0.2000000   0.0000000), wk =   0.0320000
        k(   20) = (   0.0000000  -0.2000000   0.4000000), wk =   0.0320000
        k(   21) = (   0.2000000   0.0000000  -0.4000000), wk =   0.0320000
        k(   22) = (  -0.2000000   0.0000000  -0.4000000), wk =   0.0320000
        k(   23) = (   0.4000000  -0.2000000   0.0000000), wk =   0.0320000
        k(   24) = (  -0.4000000  -0.2000000   0.0000000), wk =   0.0320000
        k(   25) = (   0.0000000   0.4000000   0.2000000), wk =   0.0320000
        k(   26) = (   0.0000000   0.4000000  -0.2000000), wk =   0.0320000
        k(   27) = (   0.2000000   0.4000000   0.0000000), wk =   0.0320000
        k(   28) = (  -0.2000000   0.4000000   0.0000000), wk =   0.0320000
        k(   29) = (   0.4000000   0.0000000   0.2000000), wk =   0.0320000
        k(   30) = (   0.4000000   0.0000000  -0.2000000), wk =   0.0320000
        k(   31) = (   0.0000000  -0.4000000   0.4000000), wk =   0.0320000
        k(   32) = (   0.4000000   0.0000000  -0.4000000), wk =   0.0320000
        k(   33) = (  -0.4000000   0.0000000  -0.4000000), wk =   0.0320000
        k(   34) = (   0.4000000  -0.4000000   0.0000000), wk =   0.0320000
        k(   35) = (  -0.4000000  -0.4000000   0.0000000), wk =   0.0320000
        k(   36) = (  -0.2000000  -0.2000000   0.2000000), wk =   0.0320000
        k(   37) = (  -0.2000000   0.2000000  -0.2000000), wk =   0.0320000
        k(   38) = (   0.2000000  -0.2000000  -0.2000000), wk =   0.0320000
        k(   39) = (  -0.2000000  -0.2000000   0.4000000), wk =   0.0320000
        k(   40) = (  -0.2000000   0.2000000  -0.4000000), wk =   0.0320000
        k(   41) = (   0.2000000  -0.2000000  -0.4000000), wk =   0.0320000
        k(   42) = (   0.4000000  -0.2000000   0.2000000), wk =   0.0320000
        k(   43) = (  -0.4000000  -0.2000000  -0.2000000), wk =   0.0320000
        k(   44) = (   0.4000000   0.2000000  -0.2000000), wk =   0.0320000
        k(   45) = (  -0.4000000   0.2000000   0.2000000), wk =   0.0320000
        k(   46) = (  -0.2000000   0.4000000   0.2000000), wk =   0.0320000
        k(   47) = (  -0.2000000  -0.4000000  -0.2000000), wk =   0.0320000
        k(   48) = (   0.2000000   0.4000000  -0.2000000), wk =   0.0320000
        k(   49) = (   0.2000000  -0.4000000   0.2000000), wk =   0.0320000
        k(   50) = (  -0.2000000  -0.4000000   0.4000000), wk =   0.0320000
        k(   51) = (  -0.2000000   0.4000000  -0.4000000), wk =   0.0320000
        k(   52) = (   0.2000000  -0.4000000  -0.4000000), wk =   0.0320000
        k(   53) = (   0.4000000   0.2000000  -0.4000000), wk =   0.0320000
        k(   54) = (  -0.4000000  -0.2000000  -0.4000000), wk =   0.0320000
        k(   55) = (   0.4000000  -0.2000000   0.4000000), wk =   0.0320000
        k(   56) = (  -0.4000000   0.2000000   0.4000000), wk =   0.0320000
        k(   57) = (   0.4000000  -0.4000000   0.2000000), wk =   0.0320000
        k(   58) = (  -0.4000000  -0.4000000  -0.2000000), wk =   0.0320000
        k(   59) = (   0.4000000   0.4000000  -0.2000000), wk =   0.0320000
        k(   60) = (  -0.4000000   0.4000000   0.2000000), wk =   0.0320000
        k(   61) = (  -0.4000000  -0.4000000   0.4000000), wk =   0.0320000
        k(   62) = (  -0.4000000   0.4000000  -0.4000000), wk =   0.0320000
        k(   63) = (   0.4000000  -0.4000000  -0.4000000), wk =   0.0320000

     Dense  grid:   809479 G-vectors     FFT dimensions: ( 120, 120, 120)

     Smooth grid:   349419 G-vectors     FFT dimensions: (  90,  90,  90)

     Dynamical RAM for                 wfc:      56.67 MB

     Dynamical RAM for     wfc (w. buffer):    3626.94 MB

     Dynamical RAM for           str. fact:      61.76 MB

     Dynamical RAM for           local pot:       0.00 MB

     Dynamical RAM for          nlocal pot:     128.01 MB

     Dynamical RAM for                qrad:       7.51 MB

     Dynamical RAM for          rho,v,vnew:      76.61 MB

     Dynamical RAM for               rhoin:      25.54 MB

     Dynamical RAM for            rho*nmix:     197.63 MB

     Dynamical RAM for           G-vectors:      48.98 MB

     Dynamical RAM for          h,s,v(r/c):       1.32 MB

     Dynamical RAM for          <psi|beta>:       0.25 MB

     Dynamical RAM for                 psi:     113.34 MB

     Dynamical RAM for                hpsi:     113.34 MB

     Dynamical RAM for                spsi:     113.34 MB

     Dynamical RAM for      wfcinit/wfcrot:     129.56 MB

     Dynamical RAM for           addusdens:    2408.58 MB

     Dynamical RAM for          addusforce:    2612.41 MB

     Dynamical RAM for         addusstress:    2482.69 MB

     Estimated static dynamical RAM per process >       4.02 GB

     Estimated max dynamical RAM per process >       6.76 GB

     Check: negative core charge=   -0.000003

     Initial potential from superposition of free atoms

     starting charge     141.9993, renormalised to     142.0000

     negative rho (up, down):  2.340E-03 0.000E+00
     Starting wfcs are   97 randomized atomic wfcs
     Checking if some PAW data can be deallocated... 

     total cpu time spent up to now is      222.2 secs

     per-process dynamical memory:     9.2 Mb

     Self-consistent Calculation

     iteration #  1     ecut=    50.00 Ry     beta= 0.70
     Davidson diagonalization with overlap

---- Real-time Memory Report at c_bands before calling an iterative solver
          4171 MiB given to the printing process from OS
             9 MiB allocation reported by mallinfo(arena+hblkhd)
           274 MiB available memory on the node where the printing process lives
------------------
     ethr =  1.00E-02,  avg # of iterations =  5.0

     negative rho (up, down):  2.830E-03 0.000E+00

     total cpu time spent up to now is      766.1 secs

     total energy              =   -1224.14416923 Ry
     estimated scf accuracy    <       4.83737440 Ry

     iteration #  2     ecut=    50.00 Ry     beta= 0.70
     Davidson diagonalization with overlap

---- Real-time Memory Report at c_bands before calling an iterative solver
          6437 MiB given to the printing process from OS
            98 MiB allocation reported by mallinfo(arena+hblkhd)
          2365 MiB available memory on the node where the printing process lives
------------------
     ethr =  3.41E-03,  avg # of iterations =  8.1

     negative rho (up, down):  5.057E-03 0.000E+00

     total cpu time spent up to now is     1408.3 secs

     total energy              =   -1223.66626492 Ry
     estimated scf accuracy    <      52.84093408 Ry

     iteration #  3     ecut=    50.00 Ry     beta= 0.70
     Davidson diagonalization with overlap

---- Real-time Memory Report at c_bands before calling an iterative solver
          6449 MiB given to the printing process from OS
           108 MiB allocation reported by mallinfo(arena+hblkhd)
          2406 MiB available memory on the node where the printing process lives
------------------
     c_bands:  1 eigenvalues not converged
     ethr =  3.41E-03,  avg # of iterations = 14.4

     negative rho (up, down):  4.121E-03 0.000E+00

     total cpu time spent up to now is     2129.8 secs

     total energy              =   -1226.65519231 Ry
     estimated scf accuracy    <       3.15731881 Ry

     iteration #  4     ecut=    50.00 Ry     beta= 0.70
     Davidson diagonalization with overlap

---- Real-time Memory Report at c_bands before calling an iterative solver
          6458 MiB given to the printing process from OS
           119 MiB allocation reported by mallinfo(arena+hblkhd)
          2413 MiB available memory on the node where the printing process lives
------------------
     ethr =  2.22E-03,  avg # of iterations =  2.1

     negative rho (up, down):  5.451E-03 0.000E+00

     total cpu time spent up to now is     2508.1 secs

     total energy              =   -1226.80685286 Ry
     estimated scf accuracy    <       6.01983499 Ry

     iteration #  5     ecut=    50.00 Ry     beta= 0.70
     Davidson diagonalization with overlap

---- Real-time Memory Report at c_bands before calling an iterative solver
          6458 MiB given to the printing process from OS
           130 MiB allocation reported by mallinfo(arena+hblkhd)
          2407 MiB available memory on the node where the printing process lives
------------------
     ethr =  2.22E-03,  avg # of iterations =  1.1

     negative rho (up, down):  2.520E-03 0.000E+00

     total cpu time spent up to now is     2855.4 secs

     total energy              =   -1227.04796370 Ry
     estimated scf accuracy    <       0.21030450 Ry

     iteration #  6     ecut=    50.00 Ry     beta= 0.70
     Davidson diagonalization with overlap

---- Real-time Memory Report at c_bands before calling an iterative solver
          6458 MiB given to the printing process from OS
           141 MiB allocation reported by mallinfo(arena+hblkhd)
          2407 MiB available memory on the node where the printing process lives
------------------
     ethr =  1.48E-04,  avg # of iterations =  8.4
     Minimization algorithm failed to find Fermi energy: reverting to bisection
     Possible cause: smearing is larger than the electronic band-gap.

     negative rho (up, down):  5.725E-03 0.000E+00

     total cpu time spent up to now is     3461.3 secs

     total energy              =   -1227.12591020 Ry
     estimated scf accuracy    <       0.24044644 Ry

     iteration #  7     ecut=    50.00 Ry     beta= 0.70
     Davidson diagonalization with overlap

---- Real-time Memory Report at c_bands before calling an iterative solver
          6458 MiB given to the printing process from OS
           151 MiB allocation reported by mallinfo(arena+hblkhd)
          2406 MiB available memory on the node where the printing process lives
------------------
     ethr =  1.48E-04,  avg # of iterations =  1.8

     negative rho (up, down):  6.291E-03 0.000E+00

     total cpu time spent up to now is     3819.9 secs

     total energy              =   -1227.13038973 Ry
     estimated scf accuracy    <       0.43632350 Ry

     iteration #  8     ecut=    50.00 Ry     beta= 0.70
     Davidson diagonalization with overlap

---- Real-time Memory Report at c_bands before calling an iterative solver
          6458 MiB given to the printing process from OS
           162 MiB allocation reported by mallinfo(arena+hblkhd)
          2420 MiB available memory on the node where the printing process lives
------------------
     ethr =  1.48E-04,  avg # of iterations =  1.1

     negative rho (up, down):  4.742E-03 0.000E+00

     total cpu time spent up to now is     4163.2 secs

     total energy              =   -1227.14292262 Ry
     estimated scf accuracy    <       0.03507926 Ry

     iteration #  9     ecut=    50.00 Ry     beta= 0.70
     Davidson diagonalization with overlap

---- Real-time Memory Report at c_bands before calling an iterative solver
          6458 MiB given to the printing process from OS
           173 MiB allocation reported by mallinfo(arena+hblkhd)
          2393 MiB available memory on the node where the printing process lives
------------------
     c_bands:  1 eigenvalues not converged
     c_bands:  1 eigenvalues not converged
     c_bands:  1 eigenvalues not converged
     c_bands:  2 eigenvalues not converged
     c_bands:  1 eigenvalues not converged
     c_bands:  2 eigenvalues not converged
     ethr =  2.47E-05,  avg # of iterations =  7.7

     negative rho (up, down):  4.318E-03 0.000E+00

     total cpu time spent up to now is     4611.6 secs

     total energy              =   -1227.14099362 Ry
     estimated scf accuracy    <       0.11368698 Ry

     iteration # 10     ecut=    50.00 Ry     beta= 0.70
     Davidson diagonalization with overlap

---- Real-time Memory Report at c_bands before calling an iterative solver
          6458 MiB given to the printing process from OS
           183 MiB allocation reported by mallinfo(arena+hblkhd)
          2415 MiB available memory on the node where the printing process lives
------------------
     ethr =  2.47E-05,  avg # of iterations =  1.7

     negative rho (up, down):  4.696E-03 0.000E+00

     total cpu time spent up to now is     4968.0 secs

     total energy              =   -1227.14386302 Ry
     estimated scf accuracy    <       0.06760416 Ry

     iteration # 11     ecut=    50.00 Ry     beta= 0.70
     Davidson diagonalization with overlap

---- Real-time Memory Report at c_bands before calling an iterative solver
          6458 MiB given to the printing process from OS
           183 MiB allocation reported by mallinfo(arena+hblkhd)
          2401 MiB available memory on the node where the printing process lives
------------------
     ethr =  2.47E-05,  avg # of iterations =  1.7

     negative rho (up, down):  3.703E-03 0.000E+00

     total cpu time spent up to now is     5328.1 secs

     total energy              =   -1227.14446220 Ry
     estimated scf accuracy    <       0.04105228 Ry

     iteration # 12     ecut=    50.00 Ry     beta= 0.70
     Davidson diagonalization with overlap

---- Real-time Memory Report at c_bands before calling an iterative solver
          6458 MiB given to the printing process from OS
           183 MiB allocation reported by mallinfo(arena+hblkhd)
          2401 MiB available memory on the node where the printing process lives
------------------
     ethr =  2.47E-05,  avg # of iterations =  1.6

     negative rho (up, down):  4.148E-03 0.000E+00

     total cpu time spent up to now is     5759.6 secs

     total energy              =   -1227.14671810 Ry
     estimated scf accuracy    <       0.00629469 Ry

     iteration # 13     ecut=    50.00 Ry     beta= 0.70
     Davidson diagonalization with overlap

---- Real-time Memory Report at c_bands before calling an iterative solver
          6458 MiB given to the printing process from OS
           183 MiB allocation reported by mallinfo(arena+hblkhd)
          2443 MiB available memory on the node where the printing process lives
------------------
     c_bands:  1 eigenvalues not converged
     c_bands:  1 eigenvalues not converged
     c_bands:  2 eigenvalues not converged
     c_bands:  1 eigenvalues not converged
     c_bands:  1 eigenvalues not converged
     c_bands:  1 eigenvalues not converged
     c_bands:  1 eigenvalues not converged
     c_bands:  1 eigenvalues not converged
     c_bands:  1 eigenvalues not converged
     c_bands:  1 eigenvalues not converged
     c_bands:  1 eigenvalues not converged
     c_bands:  1 eigenvalues not converged
     c_bands:  1 eigenvalues not converged
     c_bands:  1 eigenvalues not converged
     c_bands:  1 eigenvalues not converged
     c_bands:  1 eigenvalues not converged
     c_bands:  1 eigenvalues not converged
     c_bands:  1 eigenvalues not converged
     ethr =  4.43E-06,  avg # of iterations = 13.1

     negative rho (up, down):  3.813E-03 0.000E+00

     total cpu time spent up to now is     6438.8 secs

     total energy              =   -1227.14618592 Ry
     estimated scf accuracy    <       0.00379159 Ry

     iteration # 14     ecut=    50.00 Ry     beta= 0.70
     Davidson diagonalization with overlap

---- Real-time Memory Report at c_bands before calling an iterative solver
          6458 MiB given to the printing process from OS
           183 MiB allocation reported by mallinfo(arena+hblkhd)
          2455 MiB available memory on the node where the printing process lives
------------------
     c_bands:  1 eigenvalues not converged
     c_bands:  1 eigenvalues not converged
     c_bands:  1 eigenvalues not converged
     c_bands:  1 eigenvalues not converged
     c_bands:  1 eigenvalues not converged
     c_bands:  1 eigenvalues not converged
     c_bands:  1 eigenvalues not converged
     ethr =  2.67E-06,  avg # of iterations =  9.9

     negative rho (up, down):  3.723E-03 0.000E+00

     total cpu time spent up to now is     7056.7 secs

     total energy              =   -1227.14595697 Ry
     estimated scf accuracy    <       0.01882940 Ry

     iteration # 15     ecut=    50.00 Ry     beta= 0.70
     Davidson diagonalization with overlap

---- Real-time Memory Report at c_bands before calling an iterative solver
          6458 MiB given to the printing process from OS
           183 MiB allocation reported by mallinfo(arena+hblkhd)
          2396 MiB available memory on the node where the printing process lives
------------------
     ethr =  2.67E-06,  avg # of iterations =  2.2

     negative rho (up, down):  3.552E-03 0.000E+00

     total cpu time spent up to now is     7597.7 secs

     total energy              =   -1227.14666313 Ry
     estimated scf accuracy    <       0.00155692 Ry

     iteration # 16     ecut=    50.00 Ry     beta= 0.70
     Davidson diagonalization with overlap

---- Real-time Memory Report at c_bands before calling an iterative solver
          6458 MiB given to the printing process from OS
           183 MiB allocation reported by mallinfo(arena+hblkhd)
          2402 MiB available memory on the node where the printing process lives
------------------
     ethr =  1.10E-06,  avg # of iterations =  2.0

     negative rho (up, down):  3.500E-03 0.000E+00

     total cpu time spent up to now is     8054.9 secs

     total energy              =   -1227.14677606 Ry
     estimated scf accuracy    <       0.00015013 Ry

     iteration # 17     ecut=    50.00 Ry     beta= 0.70
     Davidson diagonalization with overlap

---- Real-time Memory Report at c_bands before calling an iterative solver
          6458 MiB given to the printing process from OS
           183 MiB allocation reported by mallinfo(arena+hblkhd)
          2416 MiB available memory on the node where the printing process lives
------------------
     ethr =  1.06E-07,  avg # of iterations =  3.6

     negative rho (up, down):  3.505E-03 0.000E+00

     total cpu time spent up to now is     8522.5 secs

     total energy              =   -1227.14680239 Ry
     estimated scf accuracy    <       0.00002798 Ry

     iteration # 18     ecut=    50.00 Ry     beta= 0.70
     Davidson diagonalization with overlap

---- Real-time Memory Report at c_bands before calling an iterative solver
          6458 MiB given to the printing process from OS
           183 MiB allocation reported by mallinfo(arena+hblkhd)
          2408 MiB available memory on the node where the printing process lives
------------------
     ethr =  1.97E-08,  avg # of iterations =  5.5

     negative rho (up, down):  3.535E-03 0.000E+00

     total cpu time spent up to now is     9197.6 secs

     total energy              =   -1227.14680810 Ry
     estimated scf accuracy    <       0.00000746 Ry

     iteration # 19     ecut=    50.00 Ry     beta= 0.70
     Davidson diagonalization with overlap

---- Real-time Memory Report at c_bands before calling an iterative solver
          6458 MiB given to the printing process from OS
           183 MiB allocation reported by mallinfo(arena+hblkhd)
          2395 MiB available memory on the node where the printing process lives
------------------
     ethr =  5.25E-09,  avg # of iterations =  3.4

     negative rho (up, down):  3.547E-03 0.000E+00

     total cpu time spent up to now is     9803.8 secs

     total energy              =   -1227.14680913 Ry
     estimated scf accuracy    <       0.00000682 Ry

     iteration # 20     ecut=    50.00 Ry     beta= 0.70
     Davidson diagonalization with overlap

---- Real-time Memory Report at c_bands before calling an iterative solver
          6458 MiB given to the printing process from OS
           183 MiB allocation reported by mallinfo(arena+hblkhd)
          2411 MiB available memory on the node where the printing process lives
------------------
     ethr =  4.80E-09,  avg # of iterations =  2.0

     negative rho (up, down):  3.553E-03 0.000E+00

     total cpu time spent up to now is    10345.0 secs

     total energy              =   -1227.14680847 Ry
     estimated scf accuracy    <       0.00004619 Ry

     iteration # 21     ecut=    50.00 Ry     beta= 0.70
     Davidson diagonalization with overlap

---- Real-time Memory Report at c_bands before calling an iterative solver
          6458 MiB given to the printing process from OS
           183 MiB allocation reported by mallinfo(arena+hblkhd)
          2403 MiB available memory on the node where the printing process lives
------------------
     ethr =  4.80E-09,  avg # of iterations =  1.3

     negative rho (up, down):  3.561E-03 0.000E+00

     total cpu time spent up to now is    10813.0 secs

     End of self-consistent calculation

          k = 0.0000 0.0000 0.0000 ( 43723 PWs)   bands (ev):

   -87.0414 -53.3692 -53.1392 -53.0817 -31.5108 -31.3347 -31.1994 -29.3847
   -29.3114 -29.2688 -29.1260 -28.8406 -28.4051 -25.8017 -25.7353 -25.5803
   -23.6511 -23.6000 -23.4575 -16.6719 -16.5684 -16.4655 -14.2506 -14.1361
   -13.9793 -13.4215 -13.3222 -13.2696 -13.0295 -12.9632 -12.9497 -12.8029
   -12.7261 -12.5038 -10.7224 -10.2747 -10.1167  -9.6717  -9.6118  -9.5500
    -9.4925  -9.4110  -9.3172  -9.2885  -9.2266  -8.9938  -8.8774  -8.8160
    -8.7806  -8.6906  -8.5894  -8.5381  -8.2690  -8.1319  -8.0658  -8.0286
    -7.8523  -7.5898  -7.3235  -7.0297  -6.9364  -6.3264  -6.1964  -5.8259
    -5.5763  -5.4292  -4.9754  -1.4456  -1.2809  -0.9549  -0.8515  -0.8320
    -0.1891  -0.1298   0.0333   0.2603   0.8301   1.3990   1.7046   2.0372
     2.3401   2.4111   2.8855   2.9457   3.0571

     occupation numbers 
     1.0000   1.0000   1.0000   1.0000   1.0000   1.0000   1.0000   1.0000
     1.0000   1.0000   1.0000   1.0000   1.0000   1.0000   1.0000   1.0000
     1.0000   1.0000   1.0000   1.0000   1.0000   1.0000   1.0000   1.0000
     1.0000   1.0000   1.0000   1.0000   1.0000   1.0000   1.0000   1.0000
     1.0000   1.0000   1.0000   1.0000   1.0000   1.0000   1.0000   1.0000
     1.0000   1.0000   1.0000   1.0000   1.0000   1.0000   1.0000   1.0000
     1.0000   1.0000   1.0000   1.0000   1.0000   1.0000   1.0000   1.0000
     1.0000   1.0000   1.0000   1.0000   1.0000   1.0000   1.0000   1.0000
     1.0000   1.0000   1.0000   1.0000   1.0000   1.0612   0.5934   0.3852
     0.0000   0.0000   0.0000   0.0000   0.0000   0.0000   0.0000   0.0000
     0.0000   0.0000   0.0000   0.0000   0.0000

          k = 0.0000 0.0000 0.2000 ( 43680 PWs)   bands (ev):

   -87.0414 -53.3691 -53.1391 -53.0816 -31.5108 -31.3347 -31.1994 -29.3847
   -29.3114 -29.2688 -29.1260 -28.8406 -28.4051 -25.8017 -25.7354 -25.5803
   -23.6511 -23.6000 -23.4575 -16.6719 -16.5620 -16.4722 -14.2507 -14.1360
   -13.9789 -13.4222 -13.3220 -13.2688 -13.0258 -12.9666 -12.9514 -12.8038
   -12.7244 -12.5033 -10.7220 -10.2748 -10.1190  -9.6703  -9.6127  -9.5404
    -9.5013  -9.4027  -9.3191  -9.2853  -9.2279  -8.9895  -8.8731  -8.8300
    -8.7777  -8.7080  -8.5823  -8.5389  -8.2699  -8.1302  -8.0638  -8.0284
    -7.8520  -7.5891  -7.3235  -7.0241  -6.9409  -6.3264  -6.1959  -5.8251
    -5.5753  -5.4283  -4.9774  -1.4446  -1.2810  -0.9544  -0.8520  -0.8302
    -0.1892  -0.1250   0.0378   0.2558   0.8545   1.2930   1.7197   2.0707
     2.3295   2.5296   2.8261   2.9040   3.0024

     occupation numbers 
     1.0000   1.0000   1.0000   1.0000   1.0000   1.0000   1.0000   1.0000
     1.0000   1.0000   1.0000   1.0000   1.0000   1.0000   1.0000   1.0000
     1.0000   1.0000   1.0000   1.0000   1.0000   1.0000   1.0000   1.0000
     1.0000   1.0000   1.0000   1.0000   1.0000   1.0000   1.0000   1.0000
     1.0000   1.0000   1.0000   1.0000   1.0000   1.0000   1.0000   1.0000
     1.0000   1.0000   1.0000   1.0000   1.0000   1.0000   1.0000   1.0000
     1.0000   1.0000   1.0000   1.0000   1.0000   1.0000   1.0000   1.0000
     1.0000   1.0000   1.0000   1.0000   1.0000   1.0000   1.0000   1.0000
     1.0000   1.0000   1.0000   1.0000   1.0000   1.0619   0.5991   0.3678
     0.0000   0.0000   0.0000   0.0000   0.0000   0.0000   0.0000   0.0000
     0.0000   0.0000   0.0000   0.0000   0.0000

          k = 0.0000 0.0000 0.4000 ( 43712 PWs)   bands (ev):

   -87.0414 -53.3692 -53.1391 -53.0816 -31.5108 -31.3347 -31.1994 -29.3847
   -29.3114 -29.2688 -29.1260 -28.8406 -28.4051 -25.8016 -25.7354 -25.5804
   -23.6511 -23.6000 -23.4575 -16.6721 -16.5489 -16.4857 -14.2508 -14.1359
   -13.9782 -13.4233 -13.3219 -13.2675 -13.0182 -12.9748 -12.9531 -12.8050
   -12.7218 -12.5024 -10.7213 -10.2750 -10.1225  -9.6678  -9.6144  -9.5237
    -9.5132  -9.3931  -9.3192  -9.2868  -9.2260  -8.9790  -8.8742  -8.8465
    -8.7752  -8.7330  -8.5743  -8.5399  -8.2714  -8.1280  -8.0605  -8.0279
    -7.8515  -7.5879  -7.3234  -7.0134  -6.9497  -6.3264  -6.1952  -5.8240
    -5.5737  -5.4268  -4.9806  -1.4434  -1.2816  -0.9541  -0.8529  -0.8279
    -0.1897  -0.1176   0.0477   0.2466   0.9249   1.1146   1.7643   2.1223
     2.3392   2.5277   2.7286   2.8194   3.0390

     occupation numbers 
     1.0000   1.0000   1.0000   1.0000   1.0000   1.0000   1.0000   1.0000
     1.0000   1.0000   1.0000   1.0000   1.0000   1.0000   1.0000   1.0000
     1.0000   1.0000   1.0000   1.0000   1.0000   1.0000   1.0000   1.0000
     1.0000   1.0000   1.0000   1.0000   1.0000   1.0000   1.0000   1.0000
     1.0000   1.0000   1.0000   1.0000   1.0000   1.0000   1.0000   1.0000
     1.0000   1.0000   1.0000   1.0000   1.0000   1.0000   1.0000   1.0000
     1.0000   1.0000   1.0000   1.0000   1.0000   1.0000   1.0000   1.0000
     1.0000   1.0000   1.0000   1.0000   1.0000   1.0000   1.0000   1.0000
     1.0000   1.0000   1.0000   1.0000   1.0000   1.0622   0.6094   0.3459
     0.0000   0.0000   0.0000   0.0000   0.0000   0.0000   0.0000   0.0000
     0.0000   0.0000   0.0000   0.0000   0.0000

          k = 0.0000 0.2000 0.2000 ( 43633 PWs)   bands (ev):

   -87.0414 -53.3691 -53.1391 -53.0816 -31.5108 -31.3347 -31.1994 -29.3847
   -29.3114 -29.2688 -29.1260 -28.8406 -28.4051 -25.8017 -25.7354 -25.5803
   -23.6511 -23.6000 -23.4575 -16.6719 -16.5620 -16.4722 -14.2507 -14.1361
   -13.9788 -13.4222 -13.3221 -13.2688 -13.0258 -12.9666 -12.9515 -12.8038
   -12.7244 -12.5033 -10.7221 -10.2746 -10.1189  -9.6706  -9.6134  -9.5403
    -9.5008  -9.4026  -9.3189  -9.2845  -9.2283  -8.9898  -8.8730  -8.8304
    -8.7783  -8.7076  -8.5825  -8.5388  -8.2698  -8.1303  -8.0639  -8.0283
    -7.8520  -7.5890  -7.3233  -7.0241  -6.9409  -6.3265  -6.1959  -5.8255
    -5.5754  -5.4276  -4.9774  -1.4452  -1.2807  -0.9541  -0.8502  -0.8307
    -0.1948  -0.1084   0.0358   0.2560   0.8757   1.2677   1.6657   2.0230
     2.4352   2.5285   2.6480   2.8812   3.1033

     occupation numbers 
     1.0000   1.0000   1.0000   1.0000   1.0000   1.0000   1.0000   1.0000
     1.0000   1.0000   1.0000   1.0000   1.0000   1.0000   1.0000   1.0000
     1.0000   1.0000   1.0000   1.0000   1.0000   1.0000   1.0000   1.0000
     1.0000   1.0000   1.0000   1.0000   1.0000   1.0000   1.0000   1.0000
     1.0000   1.0000   1.0000   1.0000   1.0000   1.0000   1.0000   1.0000
     1.0000   1.0000   1.0000   1.0000   1.0000   1.0000   1.0000   1.0000
     1.0000   1.0000   1.0000   1.0000   1.0000   1.0000   1.0000   1.0000
     1.0000   1.0000   1.0000   1.0000   1.0000   1.0000   1.0000   1.0000
     1.0000   1.0000   1.0000   1.0000   1.0000   1.0622   0.5787   0.3723
     0.0000   0.0000   0.0000   0.0000   0.0000   0.0000   0.0000   0.0000
     0.0000   0.0000   0.0000   0.0000   0.0000

          k = 0.0000 0.2000 0.4000 ( 43730 PWs)   bands (ev):

   -87.0414 -53.3692 -53.1391 -53.0817 -31.5108 -31.3347 -31.1994 -29.3847
   -29.3114 -29.2688 -29.1260 -28.8406 -28.4051 -25.8017 -25.7354 -25.5804
   -23.6511 -23.6000 -23.4575 -16.6721 -16.5489 -16.4857 -14.2508 -14.1359
   -13.9782 -13.4233 -13.3219 -13.2675 -13.0182 -12.9748 -12.9531 -12.8050
   -12.7218 -12.5024 -10.7214 -10.2749 -10.1225  -9.6681  -9.6151  -9.5233
    -9.5128  -9.3931  -9.3189  -9.2865  -9.2258  -8.9793  -8.8741  -8.8466
    -8.7758  -8.7329  -8.5743  -8.5399  -8.2713  -8.1281  -8.0606  -8.0278
    -7.8515  -7.5879  -7.3232  -7.0134  -6.9497  -6.3266  -6.1952  -5.8243
    -5.5738  -5.4262  -4.9806  -1.4441  -1.2818  -0.9542  -0.8514  -0.8284
    -0.1953  -0.1022   0.0454   0.2468   0.9590   1.1105   1.6763   2.0210
     2.3542   2.4998   2.7551   2.9296   3.0013

     occupation numbers 
     1.0000   1.0000   1.0000   1.0000   1.0000   1.0000   1.0000   1.0000
     1.0000   1.0000   1.0000   1.0000   1.0000   1.0000   1.0000   1.0000
     1.0000   1.0000   1.0000   1.0000   1.0000   1.0000   1.0000   1.0000
     1.0000   1.0000   1.0000   1.0000   1.0000   1.0000   1.0000   1.0000
     1.0000   1.0000   1.0000   1.0000   1.0000   1.0000   1.0000   1.0000
     1.0000   1.0000   1.0000   1.0000   1.0000   1.0000   1.0000   1.0000
     1.0000   1.0000   1.0000   1.0000   1.0000   1.0000   1.0000   1.0000
     1.0000   1.0000   1.0000   1.0000   1.0000   1.0000   1.0000   1.0000
     1.0000   1.0000   1.0000   1.0000   1.0000   1.0621   0.5929   0.3511
     0.0000   0.0000   0.0000   0.0000   0.0000   0.0000   0.0000   0.0000
     0.0000   0.0000   0.0000   0.0000   0.0000

          k = 0.0000 0.4000 0.4000 ( 43741 PWs)   bands (ev):

   -87.0414 -53.3691 -53.1391 -53.0817 -31.5108 -31.3347 -31.1994 -29.3847
   -29.3114 -29.2688 -29.1260 -28.8406 -28.4051 -25.8017 -25.7354 -25.5804
   -23.6511 -23.6000 -23.4575 -16.6721 -16.5489 -16.4857 -14.2508 -14.1360
   -13.9781 -13.4233 -13.3219 -13.2675 -13.0182 -12.9748 -12.9532 -12.8050
   -12.7218 -12.5024 -10.7215 -10.2746 -10.1224  -9.6685  -9.6163  -9.5227
    -9.5121  -9.3931  -9.3189  -9.2863  -9.2248  -8.9798  -8.8740  -8.8467
    -8.7767  -8.7331  -8.5742  -8.5399  -8.2712  -8.1283  -8.0608  -8.0277
    -7.8515  -7.5878  -7.3228  -7.0135  -6.9497  -6.3267  -6.1951  -5.8248
    -5.5740  -5.4251  -4.9806  -1.4453  -1.2818  -0.9543  -0.8492  -0.8290
    -0.2019  -0.0794   0.0424   0.2467   0.9842   1.1770   1.4780   1.9426
     2.3534   2.4793   2.8282   2.9017   3.0571

     occupation numbers 
     1.0000   1.0000   1.0000   1.0000   1.0000   1.0000   1.0000   1.0000
     1.0000   1.0000   1.0000   1.0000   1.0000   1.0000   1.0000   1.0000
     1.0000   1.0000   1.0000   1.0000   1.0000   1.0000   1.0000   1.0000
     1.0000   1.0000   1.0000   1.0000   1.0000   1.0000   1.0000   1.0000
     1.0000   1.0000   1.0000   1.0000   1.0000   1.0000   1.0000   1.0000
     1.0000   1.0000   1.0000   1.0000   1.0000   1.0000   1.0000   1.0000
     1.0000   1.0000   1.0000   1.0000   1.0000   1.0000   1.0000   1.0000
     1.0000   1.0000   1.0000   1.0000   1.0000   1.0000   1.0000   1.0000
     1.0000   1.0000   1.0000   1.0000   1.0000   1.0619   0.5676   0.3560
     0.0000   0.0000   0.0000   0.0000   0.0000   0.0000   0.0000   0.0000
     0.0000   0.0000   0.0000   0.0000   0.0000

          k = 0.2000 0.2000 0.2000 ( 43717 PWs)   bands (ev):

   -87.0414 -53.3691 -53.1391 -53.0817 -31.5108 -31.3347 -31.1994 -29.3847
   -29.3114 -29.2688 -29.1260 -28.8406 -28.4051 -25.8017 -25.7354 -25.5803
   -23.6511 -23.6000 -23.4575 -16.6720 -16.5620 -16.4722 -14.2507 -14.1361
   -13.9788 -13.4222 -13.3221 -13.2688 -13.0258 -12.9666 -12.9515 -12.8038
   -12.7244 -12.5033 -10.7221 -10.2746 -10.1189  -9.6706  -9.6134  -9.5403
    -9.5008  -9.4026  -9.3189  -9.2845  -9.2283  -8.9898  -8.8730  -8.8304
    -8.7783  -8.7076  -8.5825  -8.5388  -8.2698  -8.1303  -8.0639  -8.0283
    -7.8520  -7.5891  -7.3232  -7.0241  -6.9409  -6.3265  -6.1958  -5.8255
    -5.5754  -5.4278  -4.9775  -1.4455  -1.2821  -0.9555  -0.8503  -0.8309
    -0.1907  -0.0863   0.0420   0.2561   0.8569   1.2792   1.6350   1.9551
     2.3161   2.5923   2.7079   2.9536   3.1009

     occupation numbers 
     1.0000   1.0000   1.0000   1.0000   1.0000   1.0000   1.0000   1.0000
     1.0000   1.0000   1.0000   1.0000   1.0000   1.0000   1.0000   1.0000
     1.0000   1.0000   1.0000   1.0000   1.0000   1.0000   1.0000   1.0000
     1.0000   1.0000   1.0000   1.0000   1.0000   1.0000   1.0000   1.0000
     1.0000   1.0000   1.0000   1.0000   1.0000   1.0000   1.0000   1.0000
     1.0000   1.0000   1.0000   1.0000   1.0000   1.0000   1.0000   1.0000
     1.0000   1.0000   1.0000   1.0000   1.0000   1.0000   1.0000   1.0000
     1.0000   1.0000   1.0000   1.0000   1.0000   1.0000   1.0000   1.0000
     1.0000   1.0000   1.0000   1.0000   1.0000   1.0604   0.5805   0.3750
     0.0000   0.0000   0.0000   0.0000   0.0000   0.0000   0.0000   0.0000
     0.0000   0.0000   0.0000   0.0000   0.0000

          k = 0.2000 0.2000 0.4000 ( 43710 PWs)   bands (ev):

   -87.0414 -53.3691 -53.1391 -53.0816 -31.5108 -31.3347 -31.1994 -29.3847
   -29.3114 -29.2688 -29.1260 -28.8406 -28.4051 -25.8016 -25.7354 -25.5804
   -23.6511 -23.6000 -23.4575 -16.6721 -16.5489 -16.4857 -14.2508 -14.1359
   -13.9782 -13.4233 -13.3219 -13.2675 -13.0182 -12.9748 -12.9531 -12.8050
   -12.7218 -12.5024 -10.7214 -10.2748 -10.1225  -9.6681  -9.6151  -9.5233
    -9.5128  -9.3931  -9.3189  -9.2865  -9.2257  -8.9793  -8.8741  -8.8466
    -8.7758  -8.7329  -8.5743  -8.5399  -8.2713  -8.1281  -8.0606  -8.0278
    -7.8515  -7.5879  -7.3231  -7.0134  -6.9497  -6.3266  -6.1951  -5.8243
    -5.5737  -5.4264  -4.9807  -1.4441  -1.2826  -0.9550  -0.8513  -0.8282
    -0.1916  -0.0829   0.0530   0.2473   0.9455   1.1266   1.6483   1.9676
     2.1916   2.5389   2.7677   2.9633   3.0937

     occupation numbers 
     1.0000   1.0000   1.0000   1.0000   1.0000   1.0000   1.0000   1.0000
     1.0000   1.0000   1.0000   1.0000   1.0000   1.0000   1.0000   1.0000
     1.0000   1.0000   1.0000   1.0000   1.0000   1.0000   1.0000   1.0000
     1.0000   1.0000   1.0000   1.0000   1.0000   1.0000   1.0000   1.0000
     1.0000   1.0000   1.0000   1.0000   1.0000   1.0000   1.0000   1.0000
     1.0000   1.0000   1.0000   1.0000   1.0000   1.0000   1.0000   1.0000
     1.0000   1.0000   1.0000   1.0000   1.0000   1.0000   1.0000   1.0000
     1.0000   1.0000   1.0000   1.0000   1.0000   1.0000   1.0000   1.0000
     1.0000   1.0000   1.0000   1.0000   1.0000   1.0610   0.5910   0.3488
     0.0000   0.0000   0.0000   0.0000   0.0000   0.0000   0.0000   0.0000
     0.0000   0.0000   0.0000   0.0000   0.0000

          k = 0.2000 0.4000 0.4000 ( 43708 PWs)   bands (ev):

   -87.0414 -53.3691 -53.1391 -53.0816 -31.5108 -31.3347 -31.1994 -29.3847
   -29.3113 -29.2688 -29.1260 -28.8406 -28.4051 -25.8017 -25.7354 -25.5804
   -23.6511 -23.6000 -23.4575 -16.6721 -16.5489 -16.4857 -14.2508 -14.1360
   -13.9781 -13.4233 -13.3219 -13.2675 -13.0182 -12.9748 -12.9532 -12.8050
   -12.7218 -12.5024 -10.7216 -10.2746 -10.1224  -9.6685  -9.6163  -9.5227
    -9.5121  -9.3931  -9.3189  -9.2863  -9.2248  -8.9798  -8.8740  -8.8467
    -8.7767  -8.7331  -8.5742  -8.5399  -8.2712  -8.1283  -8.0608  -8.0277
    -7.8515  -7.5878  -7.3228  -7.0134  -6.9497  -6.3267  -6.1950  -5.8249
    -5.5739  -5.4253  -4.9807  -1.4454  -1.2824  -0.9551  -0.8489  -0.8287
    -0.1978  -0.0627   0.0503   0.2473   0.9748   1.2050   1.4698   1.9027
     2.2417   2.3604   2.6770   3.0071   3.1447

     occupation numbers 
     1.0000   1.0000   1.0000   1.0000   1.0000   1.0000   1.0000   1.0000
     1.0000   1.0000   1.0000   1.0000   1.0000   1.0000   1.0000   1.0000
     1.0000   1.0000   1.0000   1.0000   1.0000   1.0000   1.0000   1.0000
     1.0000   1.0000   1.0000   1.0000   1.0000   1.0000   1.0000   1.0000
     1.0000   1.0000   1.0000   1.0000   1.0000   1.0000   1.0000   1.0000
     1.0000   1.0000   1.0000   1.0000   1.0000   1.0000   1.0000   1.0000
     1.0000   1.0000   1.0000   1.0000   1.0000   1.0000   1.0000   1.0000
     1.0000   1.0000   1.0000   1.0000   1.0000   1.0000   1.0000   1.0000
     1.0000   1.0000   1.0000   1.0000   1.0000   1.0609   0.5650   0.3534
     0.0000   0.0000   0.0000   0.0000   0.0000   0.0000   0.0000   0.0000
     0.0000   0.0000   0.0000   0.0000   0.0000

          k = 0.4000 0.4000 0.4000 ( 43676 PWs)   bands (ev):

   -87.0414 -53.3691 -53.1391 -53.0816 -31.5108 -31.3347 -31.1994 -29.3847
   -29.3113 -29.2688 -29.1260 -28.8406 -28.4051 -25.8016 -25.7354 -25.5803
   -23.6511 -23.6000 -23.4575 -16.6721 -16.5489 -16.4857 -14.2508 -14.1360
   -13.9781 -13.4233 -13.3219 -13.2675 -13.0182 -12.9748 -12.9531 -12.8050
   -12.7218 -12.5024 -10.7216 -10.2745 -10.1224  -9.6685  -9.6163  -9.5227
    -9.5121  -9.3931  -9.3189  -9.2863  -9.2247  -8.9799  -8.8740  -8.8467
    -8.7767  -8.7330  -8.5742  -8.5399  -8.2712  -8.1283  -8.0608  -8.0277
    -7.8515  -7.5878  -7.3228  -7.0134  -6.9497  -6.3267  -6.1950  -5.8249
    -5.5738  -5.4257  -4.9808  -1.4454  -1.2836  -0.9564  -0.8482  -0.8282
    -0.1935  -0.0388   0.0719   0.2476   0.9320   1.2591   1.4776   1.9405
     2.0773   2.2215   2.4590   2.9435   3.2675

     occupation numbers 
     1.0000   1.0000   1.0000   1.0000   1.0000   1.0000   1.0000   1.0000
     1.0000   1.0000   1.0000   1.0000   1.0000   1.0000   1.0000   1.0000
     1.0000   1.0000   1.0000   1.0000   1.0000   1.0000   1.0000   1.0000
     1.0000   1.0000   1.0000   1.0000   1.0000   1.0000   1.0000   1.0000
     1.0000   1.0000   1.0000   1.0000   1.0000   1.0000   1.0000   1.0000
     1.0000   1.0000   1.0000   1.0000   1.0000   1.0000   1.0000   1.0000
     1.0000   1.0000   1.0000   1.0000   1.0000   1.0000   1.0000   1.0000
     1.0000   1.0000   1.0000   1.0000   1.0000   1.0000   1.0000   1.0000
     1.0000   1.0000   1.0000   1.0000   1.0000   1.0591   0.5573   0.3490
     0.0000   0.0000   0.0000   0.0000   0.0000   0.0000   0.0000   0.0000
     0.0000   0.0000   0.0000   0.0000   0.0000

          k = 0.2000 0.0000 0.0000 ( 43680 PWs)   bands (ev):

   -87.0414 -53.3691 -53.1391 -53.0817 -31.5108 -31.3347 -31.1994 -29.3847
   -29.3114 -29.2688 -29.1260 -28.8406 -28.4051 -25.8017 -25.7353 -25.5803
   -23.6511 -23.6000 -23.4575 -16.6718 -16.5684 -16.4655 -14.2506 -14.1361
   -13.9793 -13.4215 -13.3221 -13.2696 -13.0295 -12.9632 -12.9497 -12.8029
   -12.7261 -12.5038 -10.7225 -10.2747 -10.1167  -9.6717  -9.6118  -9.5500
    -9.4925  -9.4110  -9.3172  -9.2885  -9.2266  -8.9938  -8.8774  -8.8160
    -8.7806  -8.6906  -8.5894  -8.5381  -8.2690  -8.1319  -8.0658  -8.0286
    -7.8523  -7.5898  -7.3235  -7.0297  -6.9364  -6.3264  -6.1963  -5.8259
    -5.5763  -5.4293  -4.9755  -1.4454  -1.2815  -0.9557  -0.8512  -0.8316
    -0.1857  -0.1053   0.0392   0.2603   0.7961   1.3947   1.6984   2.0274
     2.3470   2.4572   2.8164   2.9134   2.9926

     occupation numbers 
     1.0000   1.0000   1.0000   1.0000   1.0000   1.0000   1.0000   1.0000
     1.0000   1.0000   1.0000   1.0000   1.0000   1.0000   1.0000   1.0000
     1.0000   1.0000   1.0000   1.0000   1.0000   1.0000   1.0000   1.0000
     1.0000   1.0000   1.0000   1.0000   1.0000   1.0000   1.0000   1.0000
     1.0000   1.0000   1.0000   1.0000   1.0000   1.0000   1.0000   1.0000
     1.0000   1.0000   1.0000   1.0000   1.0000   1.0000   1.0000   1.0000
     1.0000   1.0000   1.0000   1.0000   1.0000   1.0000   1.0000   1.0000
     1.0000   1.0000   1.0000   1.0000   1.0000   1.0000   1.0000   1.0000
     1.0000   1.0000   1.0000   1.0000   1.0000   1.0601   0.5901   0.3812
     0.0000   0.0000   0.0000   0.0000   0.0000   0.0000   0.0000   0.0000
     0.0000   0.0000   0.0000   0.0000   0.0000

          k = 0.0000 0.2000 0.0000 ( 43680 PWs)   bands (ev):

   -87.0414 -53.3691 -53.1391 -53.0816 -31.5108 -31.3347 -31.1994 -29.3847
   -29.3114 -29.2688 -29.1260 -28.8406 -28.4051 -25.8017 -25.7353 -25.5803
   -23.6511 -23.6000 -23.4575 -16.6719 -16.5684 -16.4655 -14.2506 -14.1361
   -13.9792 -13.4215 -13.3222 -13.2696 -13.0295 -12.9632 -12.9497 -12.8029
   -12.7261 -12.5038 -10.7225 -10.2745 -10.1166  -9.6719  -9.6125  -9.5499
    -9.4919  -9.4108  -9.3172  -9.2876  -9.2267  -8.9941  -8.8774  -8.8163
    -8.7812  -8.6903  -8.5895  -8.5381  -8.2689  -8.1320  -8.0659  -8.0286
    -7.8523  -7.5898  -7.3233  -7.0297  -6.9364  -6.3265  -6.1963  -5.8262
    -5.5764  -5.4285  -4.9754  -1.4461  -1.2806  -0.9546  -0.8499  -0.8322
    -0.1948  -0.1128   0.0324   0.2603   0.8415   1.3702   1.6327   2.0741
     2.3183   2.5770   2.7622   2.8549   3.0260

     occupation numbers 
     1.0000   1.0000   1.0000   1.0000   1.0000   1.0000   1.0000   1.0000
     1.0000   1.0000   1.0000   1.0000   1.0000   1.0000   1.0000   1.0000
     1.0000   1.0000   1.0000   1.0000   1.0000   1.0000   1.0000   1.0000
     1.0000   1.0000   1.0000   1.0000   1.0000   1.0000   1.0000   1.0000
     1.0000   1.0000   1.0000   1.0000   1.0000   1.0000   1.0000   1.0000
     1.0000   1.0000   1.0000   1.0000   1.0000   1.0000   1.0000   1.0000
     1.0000   1.0000   1.0000   1.0000   1.0000   1.0000   1.0000   1.0000
     1.0000   1.0000   1.0000   1.0000   1.0000   1.0000   1.0000   1.0000
     1.0000   1.0000   1.0000   1.0000   1.0000   1.0616   0.5760   0.3873
     0.0000   0.0000   0.0000   0.0000   0.0000   0.0000   0.0000   0.0000
     0.0000   0.0000   0.0000   0.0000   0.0000

          k = 0.4000 0.0000 0.0000 ( 43712 PWs)   bands (ev):

   -87.0414 -53.3691 -53.1391 -53.0817 -31.5108 -31.3347 -31.1994 -29.3847
   -29.3114 -29.2688 -29.1260 -28.8406 -28.4051 -25.8017 -25.7353 -25.5803
   -23.6511 -23.6000 -23.4575 -16.6719 -16.5684 -16.4655 -14.2506 -14.1361
   -13.9793 -13.4215 -13.3221 -13.2696 -13.0295 -12.9632 -12.9497 -12.8029
   -12.7261 -12.5038 -10.7226 -10.2746 -10.1168  -9.6717  -9.6118  -9.5500
    -9.4925  -9.4110  -9.3172  -9.2885  -9.2266  -8.9938  -8.8774  -8.8160
    -8.7806  -8.6906  -8.5894  -8.5381  -8.2690  -8.1319  -8.0658  -8.0286
    -7.8523  -7.5898  -7.3235  -7.0297  -6.9364  -6.3263  -6.1963  -5.8259
    -5.5762  -5.4296  -4.9756  -1.4454  -1.2831  -0.9575  -0.8510  -0.8313
    -0.1832  -0.0637   0.0577   0.2605   0.7233   1.4019   1.6918   2.0147
     2.4317   2.5152   2.6630   2.7676   2.8998

     occupation numbers 
     1.0000   1.0000   1.0000   1.0000   1.0000   1.0000   1.0000   1.0000
     1.0000   1.0000   1.0000   1.0000   1.0000   1.0000   1.0000   1.0000
     1.0000   1.0000   1.0000   1.0000   1.0000   1.0000   1.0000   1.0000
     1.0000   1.0000   1.0000   1.0000   1.0000   1.0000   1.0000   1.0000
     1.0000   1.0000   1.0000   1.0000   1.0000   1.0000   1.0000   1.0000
     1.0000   1.0000   1.0000   1.0000   1.0000   1.0000   1.0000   1.0000
     1.0000   1.0000   1.0000   1.0000   1.0000   1.0000   1.0000   1.0000
     1.0000   1.0000   1.0000   1.0000   1.0000   1.0000   1.0000   1.0000
     1.0000   1.0000   1.0000   1.0000   1.0000   1.0576   0.5875   0.3785
     0.0000   0.0000   0.0000   0.0000   0.0000   0.0000   0.0000   0.0000
     0.0000   0.0000   0.0000   0.0000   0.0000

          k = 0.0000 0.4000 0.0000 ( 43712 PWs)   bands (ev):

   -87.0414 -53.3691 -53.1392 -53.0816 -31.5108 -31.3347 -31.1994 -29.3847
   -29.3114 -29.2688 -29.1260 -28.8406 -28.4051 -25.8017 -25.7353 -25.5803
   -23.6511 -23.6000 -23.4575 -16.6719 -16.5684 -16.4655 -14.2506 -14.1362
   -13.9792 -13.4215 -13.3222 -13.2696 -13.0294 -12.9632 -12.9498 -12.8029
   -12.7260 -12.5038 -10.7226 -10.2743 -10.1166  -9.6723  -9.6137  -9.5497
    -9.4910  -9.4106  -9.3173  -9.2862  -9.2269  -8.9945  -8.8773  -8.8167
    -8.7821  -8.6898  -8.5897  -8.5380  -8.2688  -8.1322  -8.0661  -8.0285
    -7.8523  -7.5898  -7.3230  -7.0298  -6.9364  -6.3266  -6.1962  -5.8267
    -5.5766  -5.4274  -4.9755  -1.4475  -1.2806  -0.9546  -0.8477  -0.8331
    -0.2010  -0.0872   0.0300   0.2603   0.8617   1.2960   1.5880   2.1183
     2.3697   2.6402   2.6909   2.7575   2.8622

     occupation numbers 
     1.0000   1.0000   1.0000   1.0000   1.0000   1.0000   1.0000   1.0000
     1.0000   1.0000   1.0000   1.0000   1.0000   1.0000   1.0000   1.0000
     1.0000   1.0000   1.0000   1.0000   1.0000   1.0000   1.0000   1.0000
     1.0000   1.0000   1.0000   1.0000   1.0000   1.0000   1.0000   1.0000
     1.0000   1.0000   1.0000   1.0000   1.0000   1.0000   1.0000   1.0000
     1.0000   1.0000   1.0000   1.0000   1.0000   1.0000   1.0000   1.0000
     1.0000   1.0000   1.0000   1.0000   1.0000   1.0000   1.0000   1.0000
     1.0000   1.0000   1.0000   1.0000   1.0000   1.0000   1.0000   1.0000
     1.0000   1.0000   1.0000   1.0000   1.0000   1.0616   0.5511   0.3960
     0.0000   0.0000   0.0000   0.0000   0.0000   0.0000   0.0000   0.0000
     0.0000   0.0000   0.0000   0.0000   0.0000

          k = 0.0000-0.2000 0.2000 ( 43633 PWs)   bands (ev):

   -87.0414 -53.3691 -53.1391 -53.0816 -31.5108 -31.3347 -31.1994 -29.3847
   -29.3114 -29.2688 -29.1260 -28.8406 -28.4051 -25.8017 -25.7354 -25.5803
   -23.6511 -23.6000 -23.4575 -16.6719 -16.5620 -16.4722 -14.2507 -14.1361
   -13.9788 -13.4222 -13.3221 -13.2688 -13.0258 -12.9665 -12.9515 -12.8038
   -12.7244 -12.5033 -10.7221 -10.2746 -10.1189  -9.6705  -9.6136  -9.5402
    -9.5005  -9.4028  -9.3193  -9.2849  -9.2275  -8.9898  -8.8731  -8.8299
    -8.7784  -8.7081  -8.5823  -8.5389  -8.2698  -8.1303  -8.0639  -8.0283
    -7.8520  -7.5890  -7.3233  -7.0241  -6.9409  -6.3265  -6.1959  -5.8255
    -5.5754  -5.4276  -4.9774  -1.4451  -1.2808  -0.9541  -0.8507  -0.8300
    -0.1950  -0.1089   0.0376   0.2556   0.8624   1.3274   1.5673   2.1679
     2.2630   2.5512   2.7509   2.9436   3.0567

     occupation numbers 
     1.0000   1.0000   1.0000   1.0000   1.0000   1.0000   1.0000   1.0000
     1.0000   1.0000   1.0000   1.0000   1.0000   1.0000   1.0000   1.0000
     1.0000   1.0000   1.0000   1.0000   1.0000   1.0000   1.0000   1.0000
     1.0000   1.0000   1.0000   1.0000   1.0000   1.0000   1.0000   1.0000
     1.0000   1.0000   1.0000   1.0000   1.0000   1.0000   1.0000   1.0000
     1.0000   1.0000   1.0000   1.0000   1.0000   1.0000   1.0000   1.0000
     1.0000   1.0000   1.0000   1.0000   1.0000   1.0000   1.0000   1.0000
     1.0000   1.0000   1.0000   1.0000   1.0000   1.0000   1.0000   1.0000
     1.0000   1.0000   1.0000   1.0000   1.0000   1.0623   0.5850   0.3662
     0.0000   0.0000   0.0000   0.0000   0.0000   0.0000   0.0000   0.0000
     0.0000   0.0000   0.0000   0.0000   0.0000

          k = 0.2000 0.0000-0.2000 ( 43633 PWs)   bands (ev):

   -87.0414 -53.3691 -53.1391 -53.0816 -31.5108 -31.3347 -31.1994 -29.3847
   -29.3114 -29.2688 -29.1260 -28.8406 -28.4051 -25.8017 -25.7354 -25.5803
   -23.6511 -23.6000 -23.4575 -16.6719 -16.5620 -16.4722 -14.2507 -14.1360
   -13.9788 -13.4222 -13.3220 -13.2688 -13.0258 -12.9666 -12.9514 -12.8038
   -12.7244 -12.5033 -10.7220 -10.2748 -10.1190  -9.6703  -9.6127  -9.5404
    -9.5013  -9.4027  -9.3191  -9.2853  -9.2279  -8.9895  -8.8731  -8.8300
    -8.7777  -8.7080  -8.5823  -8.5389  -8.2699  -8.1302  -8.0638  -8.0284
    -7.8520  -7.5891  -7.3235  -7.0241  -6.9409  -6.3264  -6.1959  -5.8252
    -5.5752  -5.4285  -4.9775  -1.4444  -1.2816  -0.9551  -0.8516  -0.8297
    -0.1861  -0.1020   0.0442   0.2558   0.8253   1.2865   1.7168   2.0848
     2.3135   2.5111   2.8102   2.8515   2.9592

     occupation numbers 
     1.0000   1.0000   1.0000   1.0000   1.0000   1.0000   1.0000   1.0000
     1.0000   1.0000   1.0000   1.0000   1.0000   1.0000   1.0000   1.0000
     1.0000   1.0000   1.0000   1.0000   1.0000   1.0000   1.0000   1.0000
     1.0000   1.0000   1.0000   1.0000   1.0000   1.0000   1.0000   1.0000
     1.0000   1.0000   1.0000   1.0000   1.0000   1.0000   1.0000   1.0000
     1.0000   1.0000   1.0000   1.0000   1.0000   1.0000   1.0000   1.0000
     1.0000   1.0000   1.0000   1.0000   1.0000   1.0000   1.0000   1.0000
     1.0000   1.0000   1.0000   1.0000   1.0000   1.0000   1.0000   1.0000
     1.0000   1.0000   1.0000   1.0000   1.0000   1.0609   0.5948   0.3635
     0.0000   0.0000   0.0000   0.0000   0.0000   0.0000   0.0000   0.0000
     0.0000   0.0000   0.0000   0.0000   0.0000

          k =-0.2000 0.0000-0.2000 ( 43633 PWs)   bands (ev):

   -87.0414 -53.3691 -53.1391 -53.0816 -31.5108 -31.3347 -31.1994 -29.3847
   -29.3114 -29.2688 -29.1260 -28.8406 -28.4051 -25.8017 -25.7354 -25.5803
   -23.6511 -23.6000 -23.4575 -16.6719 -16.5620 -16.4722 -14.2507 -14.1360
   -13.9788 -13.4222 -13.3220 -13.2688 -13.0258 -12.9666 -12.9514 -12.8038
   -12.7244 -12.5032 -10.7220 -10.2748 -10.1190  -9.6703  -9.6127  -9.5404
    -9.5013  -9.4027  -9.3191  -9.2853  -9.2279  -8.9895  -8.8731  -8.8300
    -8.7777  -8.7080  -8.5823  -8.5389  -8.2699  -8.1302  -8.0638  -8.0284
    -7.8520  -7.5891  -7.3235  -7.0241  -6.9409  -6.3264  -6.1959  -5.8252
    -5.5752  -5.4285  -4.9775  -1.4444  -1.2818  -0.9552  -0.8517  -0.8298
    -0.1863  -0.1021   0.0453   0.2561   0.8270   1.3048   1.6935   2.0175
     2.3160   2.5413   2.8351   2.9274   2.9793

     occupation numbers 
     1.0000   1.0000   1.0000   1.0000   1.0000   1.0000   1.0000   1.0000
     1.0000   1.0000   1.0000   1.0000   1.0000   1.0000   1.0000   1.0000
     1.0000   1.0000   1.0000   1.0000   1.0000   1.0000   1.0000   1.0000
     1.0000   1.0000   1.0000   1.0000   1.0000   1.0000   1.0000   1.0000
     1.0000   1.0000   1.0000   1.0000   1.0000   1.0000   1.0000   1.0000
     1.0000   1.0000   1.0000   1.0000   1.0000   1.0000   1.0000   1.0000
     1.0000   1.0000   1.0000   1.0000   1.0000   1.0000   1.0000   1.0000
     1.0000   1.0000   1.0000   1.0000   1.0000   1.0000   1.0000   1.0000
     1.0000   1.0000   1.0000   1.0000   1.0000   1.0607   0.5957   0.3637
     0.0000   0.0000   0.0000   0.0000   0.0000   0.0000   0.0000   0.0000
     0.0000   0.0000   0.0000   0.0000   0.0000

          k = 0.2000-0.2000 0.0000 ( 43633 PWs)   bands (ev):

   -87.0414 -53.3691 -53.1391 -53.0816 -31.5108 -31.3347 -31.1994 -29.3847
   -29.3114 -29.2688 -29.1260 -28.8406 -28.4051 -25.8017 -25.7353 -25.5803
   -23.6511 -23.6000 -23.4575 -16.6718 -16.5684 -16.4655 -14.2506 -14.1361
   -13.9792 -13.4215 -13.3222 -13.2696 -13.0295 -12.9632 -12.9497 -12.8029
   -12.7261 -12.5038 -10.7225 -10.2745 -10.1167  -9.6719  -9.6125  -9.5499
    -9.4919  -9.4108  -9.3172  -9.2876  -9.2267  -8.9941  -8.8774  -8.8163
    -8.7812  -8.6903  -8.5895  -8.5381  -8.2689  -8.1320  -8.0659  -8.0286
    -7.8523  -7.5898  -7.3233  -7.0297  -6.9364  -6.3265  -6.1963  -5.8262
    -5.5764  -5.4287  -4.9755  -1.4460  -1.2813  -0.9555  -0.8495  -0.8317
    -0.1910  -0.0921   0.0393   0.2604   0.8101   1.3923   1.6191   2.0707
     2.3048   2.4864   2.7565   2.8929   2.9600

     occupation numbers 
     1.0000   1.0000   1.0000   1.0000   1.0000   1.0000   1.0000   1.0000
     1.0000   1.0000   1.0000   1.0000   1.0000   1.0000   1.0000   1.0000
     1.0000   1.0000   1.0000   1.0000   1.0000   1.0000   1.0000   1.0000
     1.0000   1.0000   1.0000   1.0000   1.0000   1.0000   1.0000   1.0000
     1.0000   1.0000   1.0000   1.0000   1.0000   1.0000   1.0000   1.0000
     1.0000   1.0000   1.0000   1.0000   1.0000   1.0000   1.0000   1.0000
     1.0000   1.0000   1.0000   1.0000   1.0000   1.0000   1.0000   1.0000
     1.0000   1.0000   1.0000   1.0000   1.0000   1.0000   1.0000   1.0000
     1.0000   1.0000   1.0000   1.0000   1.0000   1.0604   0.5712   0.3822
     0.0000   0.0000   0.0000   0.0000   0.0000   0.0000   0.0000   0.0000
     0.0000   0.0000   0.0000   0.0000   0.0000

          k =-0.2000-0.2000 0.0000 ( 43633 PWs)   bands (ev):

   -87.0414 -53.3691 -53.1391 -53.0816 -31.5108 -31.3347 -31.1994 -29.3847
   -29.3114 -29.2688 -29.1259 -28.8406 -28.4051 -25.8017 -25.7353 -25.5803
   -23.6511 -23.6000 -23.4575 -16.6719 -16.5684 -16.4655 -14.2506 -14.1361
   -13.9792 -13.4215 -13.3222 -13.2696 -13.0295 -12.9632 -12.9497 -12.8029
   -12.7261 -12.5038 -10.7225 -10.2745 -10.1167  -9.6719  -9.6125  -9.5499
    -9.4919  -9.4108  -9.3172  -9.2876  -9.2267  -8.9941  -8.8774  -8.8163
    -8.7812  -8.6903  -8.5895  -8.5381  -8.2689  -8.1320  -8.0659  -8.0286
    -7.8523  -7.5898  -7.3233  -7.0297  -6.9364  -6.3265  -6.1963  -5.8262
    -5.5764  -5.4287  -4.9755  -1.4460  -1.2813  -0.9553  -0.8496  -0.8320
    -0.1900  -0.0890   0.0369   0.2604   0.8200   1.3518   1.6261   2.0087
     2.4017   2.5389   2.7397   2.8924   3.0496

     occupation numbers 
     1.0000   1.0000   1.0000   1.0000   1.0000   1.0000   1.0000   1.0000
     1.0000   1.0000   1.0000   1.0000   1.0000   1.0000   1.0000   1.0000
     1.0000   1.0000   1.0000   1.0000   1.0000   1.0000   1.0000   1.0000
     1.0000   1.0000   1.0000   1.0000   1.0000   1.0000   1.0000   1.0000
     1.0000   1.0000   1.0000   1.0000   1.0000   1.0000   1.0000   1.0000
     1.0000   1.0000   1.0000   1.0000   1.0000   1.0000   1.0000   1.0000
     1.0000   1.0000   1.0000   1.0000   1.0000   1.0000   1.0000   1.0000
     1.0000   1.0000   1.0000   1.0000   1.0000   1.0000   1.0000   1.0000
     1.0000   1.0000   1.0000   1.0000   1.0000   1.0607   0.5722   0.3856
     0.0000   0.0000   0.0000   0.0000   0.0000   0.0000   0.0000   0.0000
     0.0000   0.0000   0.0000   0.0000   0.0000

          k = 0.0000-0.2000 0.4000 ( 43730 PWs)   bands (ev):

   -87.0414 -53.3691 -53.1392 -53.0817 -31.5108 -31.3347 -31.1994 -29.3847
   -29.3113 -29.2688 -29.1260 -28.8406 -28.4051 -25.8016 -25.7354 -25.5804
   -23.6511 -23.6000 -23.4575 -16.6721 -16.5489 -16.4857 -14.2508 -14.1359
   -13.9782 -13.4233 -13.3219 -13.2675 -13.0182 -12.9748 -12.9531 -12.8050
   -12.7218 -12.5024 -10.7214 -10.2748 -10.1225  -9.6680  -9.6152  -9.5233
    -9.5127  -9.3931  -9.3193  -9.2868  -9.2252  -8.9793  -8.8741  -8.8464
    -8.7756  -8.7333  -8.5742  -8.5399  -8.2713  -8.1281  -8.0606  -8.0278
    -7.8515  -7.5879  -7.3232  -7.0134  -6.9497  -6.3266  -6.1952  -5.8243
    -5.5738  -5.4262  -4.9806  -1.4441  -1.2817  -0.9543  -0.8517  -0.8281
    -0.1955  -0.1027   0.0468   0.2464   0.9366   1.1493   1.6247   2.1093
     2.2842   2.4798   2.8496   2.8919   3.0287

     occupation numbers 
     1.0000   1.0000   1.0000   1.0000   1.0000   1.0000   1.0000   1.0000
     1.0000   1.0000   1.0000   1.0000   1.0000   1.0000   1.0000   1.0000
     1.0000   1.0000   1.0000   1.0000   1.0000   1.0000   1.0000   1.0000
     1.0000   1.0000   1.0000   1.0000   1.0000   1.0000   1.0000   1.0000
     1.0000   1.0000   1.0000   1.0000   1.0000   1.0000   1.0000   1.0000
     1.0000   1.0000   1.0000   1.0000   1.0000   1.0000   1.0000   1.0000
     1.0000   1.0000   1.0000   1.0000   1.0000   1.0000   1.0000   1.0000
     1.0000   1.0000   1.0000   1.0000   1.0000   1.0000   1.0000   1.0000
     1.0000   1.0000   1.0000   1.0000   1.0000   1.0620   0.5958   0.3479
     0.0000   0.0000   0.0000   0.0000   0.0000   0.0000   0.0000   0.0000
     0.0000   0.0000   0.0000   0.0000   0.0000

          k = 0.2000 0.0000-0.4000 ( 43730 PWs)   bands (ev):

   -87.0414 -53.3692 -53.1392 -53.0817 -31.5108 -31.3347 -31.1994 -29.3847
   -29.3114 -29.2688 -29.1260 -28.8406 -28.4051 -25.8016 -25.7354 -25.5804
   -23.6511 -23.6000 -23.4575 -16.6721 -16.5489 -16.4857 -14.2508 -14.1359
   -13.9782 -13.4233 -13.3219 -13.2675 -13.0182 -12.9748 -12.9531 -12.8050
   -12.7218 -12.5024 -10.7214 -10.2750 -10.1225  -9.6678  -9.6144  -9.5237
    -9.5132  -9.3931  -9.3192  -9.2868  -9.2260  -8.9790  -8.8742  -8.8465
    -8.7752  -8.7330  -8.5743  -8.5399  -8.2714  -8.1280  -8.0605  -8.0279
    -7.8515  -7.5879  -7.3233  -7.0134  -6.9497  -6.3264  -6.1952  -5.8240
    -5.5736  -5.4270  -4.9807  -1.4435  -1.2825  -0.9553  -0.8528  -0.8276
    -0.1872  -0.0974   0.0556   0.2467   0.9117   1.1079   1.7565   2.0637
     2.2828   2.5674   2.7525   2.7986   2.9908

     occupation numbers 
     1.0000   1.0000   1.0000   1.0000   1.0000   1.0000   1.0000   1.0000
     1.0000   1.0000   1.0000   1.0000   1.0000   1.0000   1.0000   1.0000
     1.0000   1.0000   1.0000   1.0000   1.0000   1.0000   1.0000   1.0000
     1.0000   1.0000   1.0000   1.0000   1.0000   1.0000   1.0000   1.0000
     1.0000   1.0000   1.0000   1.0000   1.0000   1.0000   1.0000   1.0000
     1.0000   1.0000   1.0000   1.0000   1.0000   1.0000   1.0000   1.0000
     1.0000   1.0000   1.0000   1.0000   1.0000   1.0000   1.0000   1.0000
     1.0000   1.0000   1.0000   1.0000   1.0000   1.0000   1.0000   1.0000
     1.0000   1.0000   1.0000   1.0000   1.0000   1.0607   0.6077   0.3436
     0.0000   0.0000   0.0000   0.0000   0.0000   0.0000   0.0000   0.0000
     0.0000   0.0000   0.0000   0.0000   0.0000

          k =-0.2000 0.0000-0.4000 ( 43730 PWs)   bands (ev):

   -87.0414 -53.3692 -53.1391 -53.0817 -31.5108 -31.3347 -31.1994 -29.3847
   -29.3114 -29.2688 -29.1260 -28.8406 -28.4051 -25.8016 -25.7354 -25.5804
   -23.6511 -23.6000 -23.4575 -16.6721 -16.5489 -16.4857 -14.2508 -14.1359
   -13.9782 -13.4233 -13.3219 -13.2675 -13.0182 -12.9748 -12.9531 -12.8050
   -12.7218 -12.5024 -10.7214 -10.2750 -10.1225  -9.6678  -9.6144  -9.5237
    -9.5132  -9.3931  -9.3192  -9.2868  -9.2260  -8.9790  -8.8742  -8.8465
    -8.7752  -8.7330  -8.5743  -8.5399  -8.2714  -8.1280  -8.0605  -8.0279
    -7.8515  -7.5879  -7.3233  -7.0134  -6.9497  -6.3264  -6.1952  -5.8240
    -5.5736  -5.4270  -4.9807  -1.4435  -1.2827  -0.9553  -0.8529  -0.8276
    -0.1873  -0.0974   0.0560   0.2472   0.9119   1.1154   1.7408   2.0402
     2.2975   2.5391   2.7381   2.8632   2.9806

     occupation numbers 
     1.0000   1.0000   1.0000   1.0000   1.0000   1.0000   1.0000   1.0000
     1.0000   1.0000   1.0000   1.0000   1.0000   1.0000   1.0000   1.0000
     1.0000   1.0000   1.0000   1.0000   1.0000   1.0000   1.0000   1.0000
     1.0000   1.0000   1.0000   1.0000   1.0000   1.0000   1.0000   1.0000
     1.0000   1.0000   1.0000   1.0000   1.0000   1.0000   1.0000   1.0000
     1.0000   1.0000   1.0000   1.0000   1.0000   1.0000   1.0000   1.0000
     1.0000   1.0000   1.0000   1.0000   1.0000   1.0000   1.0000   1.0000
     1.0000   1.0000   1.0000   1.0000   1.0000   1.0000   1.0000   1.0000
     1.0000   1.0000   1.0000   1.0000   1.0000   1.0607   0.6089   0.3428
     0.0000   0.0000   0.0000   0.0000   0.0000   0.0000   0.0000   0.0000
     0.0000   0.0000   0.0000   0.0000   0.0000

          k = 0.4000-0.2000 0.0000 ( 43730 PWs)   bands (ev):

   -87.0414 -53.3691 -53.1391 -53.0817 -31.5108 -31.3347 -31.1994 -29.3847
   -29.3114 -29.2688 -29.1260 -28.8406 -28.4051 -25.8017 -25.7353 -25.5803
   -23.6511 -23.6000 -23.4575 -16.6719 -16.5684 -16.4655 -14.2506 -14.1361
   -13.9792 -13.4215 -13.3222 -13.2696 -13.0295 -12.9632 -12.9497 -12.8029
   -12.7261 -12.5038 -10.7226 -10.2745 -10.1167  -9.6719  -9.6125  -9.5499
    -9.4919  -9.4108  -9.3172  -9.2876  -9.2267  -8.9941  -8.8774  -8.8163
    -8.7812  -8.6903  -8.5896  -8.5381  -8.2689  -8.1320  -8.0659  -8.0286
    -7.8523  -7.5898  -7.3233  -7.0297  -6.9364  -6.3265  -6.1962  -5.8263
    -5.5763  -5.4290  -4.9756  -1.4464  -1.2829  -0.9575  -0.8495  -0.8317
    -0.1869  -0.0544   0.0571   0.2606   0.7512   1.4050   1.6095   1.9811
     2.4083   2.4544   2.6564   2.8407   3.0256

     occupation numbers 
     1.0000   1.0000   1.0000   1.0000   1.0000   1.0000   1.0000   1.0000
     1.0000   1.0000   1.0000   1.0000   1.0000   1.0000   1.0000   1.0000
     1.0000   1.0000   1.0000   1.0000   1.0000   1.0000   1.0000   1.0000
     1.0000   1.0000   1.0000   1.0000   1.0000   1.0000   1.0000   1.0000
     1.0000   1.0000   1.0000   1.0000   1.0000   1.0000   1.0000   1.0000
     1.0000   1.0000   1.0000   1.0000   1.0000   1.0000   1.0000   1.0000
     1.0000   1.0000   1.0000   1.0000   1.0000   1.0000   1.0000   1.0000
     1.0000   1.0000   1.0000   1.0000   1.0000   1.0000   1.0000   1.0000
     1.0000   1.0000   1.0000   1.0000   1.0000   1.0576   0.5717   0.3829
     0.0000   0.0000   0.0000   0.0000   0.0000   0.0000   0.0000   0.0000
     0.0000   0.0000   0.0000   0.0000   0.0000

          k =-0.4000-0.2000 0.0000 ( 43730 PWs)   bands (ev):

   -87.0414 -53.3691 -53.1392 -53.0817 -31.5108 -31.3347 -31.1994 -29.3847
   -29.3114 -29.2688 -29.1260 -28.8406 -28.4051 -25.8017 -25.7353 -25.5803
   -23.6511 -23.6000 -23.4575 -16.6719 -16.5684 -16.4655 -14.2506 -14.1361
   -13.9792 -13.4215 -13.3222 -13.2696 -13.0295 -12.9632 -12.9497 -12.8029
   -12.7261 -12.5038 -10.7226 -10.2745 -10.1167  -9.6719  -9.6125  -9.5499
    -9.4919  -9.4108  -9.3172  -9.2876  -9.2267  -8.9941  -8.8774  -8.8163
    -8.7812  -8.6903  -8.5896  -8.5381  -8.2689  -8.1320  -8.0659  -8.0286
    -7.8523  -7.5898  -7.3233  -7.0297  -6.9364  -6.3265  -6.1962  -5.8263
    -5.5763  -5.4290  -4.9756  -1.4464  -1.2831  -0.9573  -0.8496  -0.8319
    -0.1865  -0.0519   0.0553   0.2606   0.7569   1.3689   1.6283   1.9603
     2.4197   2.5166   2.7106   2.7616   3.0830

     occupation numbers 
     1.0000   1.0000   1.0000   1.0000   1.0000   1.0000   1.0000   1.0000
     1.0000   1.0000   1.0000   1.0000   1.0000   1.0000   1.0000   1.0000
     1.0000   1.0000   1.0000   1.0000   1.0000   1.0000   1.0000   1.0000
     1.0000   1.0000   1.0000   1.0000   1.0000   1.0000   1.0000   1.0000
     1.0000   1.0000   1.0000   1.0000   1.0000   1.0000   1.0000   1.0000
     1.0000   1.0000   1.0000   1.0000   1.0000   1.0000   1.0000   1.0000
     1.0000   1.0000   1.0000   1.0000   1.0000   1.0000   1.0000   1.0000
     1.0000   1.0000   1.0000   1.0000   1.0000   1.0000   1.0000   1.0000
     1.0000   1.0000   1.0000   1.0000   1.0000   1.0579   0.5724   0.3848
     0.0000   0.0000   0.0000   0.0000   0.0000   0.0000   0.0000   0.0000
     0.0000   0.0000   0.0000   0.0000   0.0000

          k = 0.0000 0.4000 0.2000 ( 43730 PWs)   bands (ev):

   -87.0414 -53.3692 -53.1391 -53.0817 -31.5108 -31.3347 -31.1994 -29.3847
   -29.3114 -29.2688 -29.1260 -28.8406 -28.4051 -25.8017 -25.7354 -25.5803
   -23.6511 -23.6000 -23.4575 -16.6720 -16.5620 -16.4722 -14.2507 -14.1361
   -13.9788 -13.4222 -13.3221 -13.2688 -13.0258 -12.9665 -12.9515 -12.8038
   -12.7244 -12.5033 -10.7222 -10.2744 -10.1188  -9.6710  -9.6146  -9.5401
    -9.4998  -9.4025  -9.3190  -9.2835  -9.2280  -8.9903  -8.8729  -8.8306
    -8.7794  -8.7075  -8.5825  -8.5388  -8.2697  -8.1305  -8.0641  -8.0282
    -7.8520  -7.5890  -7.3229  -7.0241  -6.9409  -6.3267  -6.1958  -5.8260
    -5.5756  -5.4266  -4.9774  -1.4467  -1.2812  -0.9545  -0.8482  -0.8315
    -0.2012  -0.0839   0.0334   0.2558   0.8993   1.2623   1.5368   2.0512
     2.4024   2.4746   2.7442   2.8060   3.0450

     occupation numbers 
     1.0000   1.0000   1.0000   1.0000   1.0000   1.0000   1.0000   1.0000
     1.0000   1.0000   1.0000   1.0000   1.0000   1.0000   1.0000   1.0000
     1.0000   1.0000   1.0000   1.0000   1.0000   1.0000   1.0000   1.0000
     1.0000   1.0000   1.0000   1.0000   1.0000   1.0000   1.0000   1.0000
     1.0000   1.0000   1.0000   1.0000   1.0000   1.0000   1.0000   1.0000
     1.0000   1.0000   1.0000   1.0000   1.0000   1.0000   1.0000   1.0000
     1.0000   1.0000   1.0000   1.0000   1.0000   1.0000   1.0000   1.0000
     1.0000   1.0000   1.0000   1.0000   1.0000   1.0000   1.0000   1.0000
     1.0000   1.0000   1.0000   1.0000   1.0000   1.0617   0.5571   0.3811
     0.0000   0.0000   0.0000   0.0000   0.0000   0.0000   0.0000   0.0000
     0.0000   0.0000   0.0000   0.0000   0.0000

[...]
     atom    4 type  1   force =    -0.01060701    0.01014298    0.00711315
     atom    5 type  1   force =     0.02583827    0.02315745   -0.01690169
     atom    6 type  1   force =     0.01858735    0.01324500   -0.02869219
     atom    7 type  1   force =     0.00206184    0.03512047   -0.03255405
     atom    8 type  1   force =     0.02045406   -0.00443578    0.01635478
     atom    9 type  1   force =    -0.00790103    0.01391390    0.02488694
     atom   10 type  1   force =    -0.00258664   -0.00687264    0.02660519
     atom   11 type  4   force =    -0.03729889    0.05474107    0.01438832
     atom   12 type  4   force =     0.03293630    0.05065525    0.02066983
     atom   13 type  4   force =     0.03092614   -0.00276686   -0.00821636
     atom   14 type  4   force =     0.05423267   -0.00813861    0.01666586
     atom   15 type  4   force =    -0.01487035   -0.01544719    0.04676887
     atom   16 type  4   force =     0.06084223   -0.00986063    0.01484602
     atom   17 type  2   force =     0.02123192   -0.05388873   -0.02734209
     atom   18 type  2   force =    -0.00929333   -0.07212962   -0.03280143
     atom   19 type  2   force =    -0.06136434   -0.00072831   -0.00302036
     atom   20 type  2   force =    -0.06996482   -0.04813682    0.06542571
     atom   21 type  2   force =    -0.00705945   -0.00265664   -0.03757311
     atom   22 type  2   force =    -0.03208084   -0.00759197   -0.08123331
     atom   23 type  5   force =    -0.02542505   -0.03600298   -0.02051833
     atom   24 type  5   force =    -0.03976998   -0.01446575    0.00009485
     atom   25 type  5   force =    -0.03829912   -0.00062638   -0.01738491
     The non-local contrib.  to forces
     atom    1 type  3   force =    -0.65400757   -0.26647092   -0.39410512
     atom    2 type  1   force =    -2.27820625   -1.37606841   -1.30171939
     atom    3 type  1   force =     1.49469779   -2.03085490    1.75487502
     atom    4 type  1   force =     1.84388451    0.99727758   -2.26940890
     atom    5 type  1   force =    -1.26198206   -2.72940774   -0.60331832
     atom    6 type  1   force =     0.05130815    0.85019418    2.95134488
     atom    7 type  1   force =     2.67225547   -0.23784659   -0.77537629
     atom    8 type  1   force =    -2.65972631   -0.80299290   -1.19445505
     atom    9 type  1   force =     1.55032700   -2.44576759    0.38601425
     atom   10 type  1   force =     1.60628494    1.82531720   -1.89402879
     atom   11 type  4   force =     1.22183401    1.49369932    0.90354133
     atom   12 type  4   force =    -1.08640267    1.78399363    1.14086571
     atom   13 type  4   force =     1.23470152    1.48880826   -0.85871920
     atom   14 type  4   force =    -0.71687562    1.53400701   -1.63814365
     atom   15 type  4   force =     1.62575113    0.31838452    1.12826116
     atom   16 type  4   force =    -0.42593221    0.64990038    2.28284673
     atom   17 type  2   force =     0.24334377   -0.15212602   -0.06997010
     atom   18 type  2   force =    -0.14540111    0.44648821    0.31010733
     atom   19 type  2   force =     0.20980825   -0.10809308    0.22538833
     atom   20 type  2   force =    -0.27685511    0.47800727   -0.37245187
     atom   21 type  2   force =     0.16836934   -0.02034211   -0.24722604
     atom   22 type  2   force =    -0.05465529    0.27392198    0.54545246
     atom   23 type  5   force =    -0.04930746   -0.07254767   -0.04282607
     atom   24 type  5   force =    -0.07162063   -0.06401484    0.03267640
     atom   25 type  5   force =    -0.07745429   -0.01144317   -0.06189434
     The ionic contribution  to forces
     atom    1 type  3   force =   -39.45594996  -26.10774611  -17.88702494
     atom    2 type  1   force =    14.68787506   16.75638996   10.95454853
     atom    3 type  1   force =   -14.88792900   17.87957153  -10.73692301
     atom    4 type  1   force =   -19.78216030    2.48526430   17.05915580
     atom    5 type  1   force =    15.15925057   23.49308001   -2.36363137
     atom    6 type  1   force =     5.71606826   -0.94230895  -15.63093633
     atom    7 type  1   force =   -18.38061399   10.20751397   -7.40568503
     atom    8 type  1   force =    23.27607165    0.60584791    8.77700330
     atom    9 type  1   force =   -10.75435579   11.68676678    7.67084905
     atom   10 type  1   force =   -12.20036197  -18.12194468   14.56994704
     atom   11 type  4   force =   -16.76653710    3.80790518   -2.87228912
     atom   12 type  4   force =    15.98064878    5.41350188   -1.58524178
     atom   13 type  4   force =     4.74807570  -16.58761794   -5.02047525
     atom   14 type  4   force =    19.87442142   -6.13851889    2.80575887
     atom   15 type  4   force =    -9.13143698  -14.50145477    4.37886593
     atom   16 type  4   force =    17.30646555  -11.11538171   -3.51337849
     atom   17 type  2   force =    -2.76846427    6.94974483    0.10532902
     atom   18 type  2   force =    -2.50584065    3.06237074   -0.52758747
     atom   19 type  2   force =     7.76786050   -2.96165163   -4.34303528
     atom   20 type  2   force =     4.76163561    0.87397080   -2.50833529
     atom   21 type  2   force =     2.43220155   -6.91197793    4.65373886
     atom   22 type  2   force =     0.90820389   -4.61434258    1.24030393
     atom   23 type  5   force =     4.16300501    3.57578880    1.32469212
     atom   24 type  5   force =     4.76517756    2.09091635   -1.24429836
     atom   25 type  5   force =     5.08668889   -0.88568786    2.09864928
     The local contribution  to forces
     atom    1 type  3   force =    40.17926164   26.41388876   18.31135959
     atom    2 type  1   force =   -12.40750183  -15.36516017   -9.64560902
     atom    3 type  1   force =    13.38965193  -15.83977265    8.98547134
     atom    4 type  1   force =    17.93350666   -3.46906032  -14.78988065
     atom    5 type  1   force =   -13.87546162  -20.74905242    2.94795086
     atom    6 type  1   force =    -5.74871964    0.10824193   12.66012807
     atom    7 type  1   force =    15.71877930   -9.93523017    8.14583631
     atom    8 type  1   force =   -20.60458410    0.18997238   -7.57009346
     atom    9 type  1   force =     9.20114711   -9.23524563   -8.03054431
     atom   10 type  1   force =    10.59667491   16.29563414  -12.65549040
     atom   11 type  4   force =    15.51594046   -5.23653636    1.98947991
     atom   12 type  4   force =   -14.86952416   -7.13192391    0.47454107
     atom   13 type  4   force =    -5.94372101   15.10695135    5.86487787
     atom   14 type  4   force =   -19.10830116    4.60909039   -1.16418661
     atom   15 type  4   force =     7.50246704   14.16981034   -5.45262171
     atom   16 type  4   force =   -16.82263732   10.46075937    1.26445814
     atom   17 type  2   force =     2.55265826   -6.85004584   -0.06161035
     atom   18 type  2   force =     2.63903105   -3.57183498    0.19093273
     atom   19 type  2   force =    -8.03213310    3.06885948    4.11701648
     atom   20 type  2   force =    -4.56079655   -1.39030413    2.93833618
     atom   21 type  2   force =    -2.60157494    6.92918491   -4.44477791
     atom   22 type  2   force =    -0.88672550    4.33853095   -1.85601790
     atom   23 type  5   force =    -4.13910790   -3.53920007   -1.30233570
     atom   24 type  5   force =    -4.73329614   -2.04134604    1.21174766
     atom   25 type  5   force =    -5.04757598    0.89650268   -2.05411794
     The core correction contribution to forces
     atom    1 type  3   force =     0.01791773    0.00746975    0.01290635
     atom    2 type  1   force =     0.00743890    0.00445491    0.00422293
     atom    3 type  1   force =    -0.00485569    0.00659090   -0.00573119
     atom    4 type  1   force =    -0.00601607   -0.00329310    0.00742599
     atom    5 type  1   force =     0.00405039    0.00886227    0.00201815
     atom    6 type  1   force =    -0.00021736   -0.00283438   -0.00954168
     atom    7 type  1   force =    -0.00884755    0.00068634    0.00265939
     atom    8 type  1   force =     0.00864661    0.00264935    0.00386098
     atom    9 type  1   force =    -0.00506871    0.00799532   -0.00135978
     atom   10 type  1   force =    -0.00524236   -0.00595915    0.00609510
     atom   11 type  4   force =    -0.00875029   -0.01079173   -0.00667067
     atom   12 type  4   force =     0.00831781   -0.01498498   -0.00946036
     atom   13 type  4   force =    -0.00862496   -0.01121653    0.00650422
     atom   14 type  4   force =     0.00526247   -0.01279813    0.01349958
     atom   15 type  4   force =    -0.01176682   -0.00237457   -0.00789426
     atom   16 type  4   force =     0.00273038   -0.00525121   -0.01894334
     atom   17 type  2   force =    -0.00647019   -0.00155811   -0.00113254
     atom   18 type  2   force =     0.00282303   -0.00902556   -0.00615769
     atom   19 type  2   force =    -0.00695007    0.00011629   -0.00225587
     atom   20 type  2   force =     0.00589468   -0.00964871    0.00776286
     atom   21 type  2   force =    -0.00606587    0.00036417    0.00074957
     atom   22 type  2   force =     0.00105293   -0.00579887   -0.01102943
     atom   23 type  5   force =     0.00000000    0.00000000    0.00000000
     atom   24 type  5   force =     0.00000000    0.00000000    0.00000000
     atom   25 type  5   force =     0.00000000    0.00000000    0.00000000
     The Hubbard contrib.    to forces
     atom    1 type  3   force =     0.00000000    0.00000000    0.00000000
     atom    2 type  1   force =     0.00000000    0.00000000    0.00000000
     atom    3 type  1   force =     0.00000000    0.00000000    0.00000000
     atom    4 type  1   force =     0.00000000    0.00000000    0.00000000
     atom    5 type  1   force =     0.00000000    0.00000000    0.00000000
     atom    6 type  1   force =     0.00000000    0.00000000    0.00000000
     atom    7 type  1   force =     0.00000000    0.00000000    0.00000000
     atom    8 type  1   force =     0.00000000    0.00000000    0.00000000
     atom    9 type  1   force =     0.00000000    0.00000000    0.00000000
     atom   10 type  1   force =     0.00000000    0.00000000    0.00000000
     atom   11 type  4   force =     0.00000000    0.00000000    0.00000000
     atom   12 type  4   force =     0.00000000    0.00000000    0.00000000
     atom   13 type  4   force =     0.00000000    0.00000000    0.00000000
     atom   14 type  4   force =     0.00000000    0.00000000    0.00000000
     atom   15 type  4   force =     0.00000000    0.00000000    0.00000000
     atom   16 type  4   force =     0.00000000    0.00000000    0.00000000
     atom   17 type  2   force =     0.00000000    0.00000000    0.00000000
     atom   18 type  2   force =     0.00000000    0.00000000    0.00000000
     atom   19 type  2   force =     0.00000000    0.00000000    0.00000000
     atom   20 type  2   force =     0.00000000    0.00000000    0.00000000
     atom   21 type  2   force =     0.00000000    0.00000000    0.00000000
     atom   22 type  2   force =     0.00000000    0.00000000    0.00000000
     atom   23 type  5   force =     0.00000000    0.00000000    0.00000000
     atom   24 type  5   force =     0.00000000    0.00000000    0.00000000
     atom   25 type  5   force =     0.00000000    0.00000000    0.00000000
     The SCF correction term to forces
     atom    1 type  3   force =     0.00086260    0.00100952    0.00030663
     atom    2 type  1   force =    -0.00004908   -0.00022823   -0.00013292
     atom    3 type  1   force =     0.00015477   -0.00026103    0.00005663
     atom    4 type  1   force =     0.00016185   -0.00003211   -0.00015139
     atom    5 type  1   force =    -0.00003535   -0.00031129    0.00010668
     atom    6 type  1   force =     0.00013160   -0.00003440    0.00034056
     atom    7 type  1   force =     0.00047226    0.00001029    0.00003927
     atom    8 type  1   force =     0.00002986    0.00010086    0.00006670
     atom    9 type  1   force =     0.00003301    0.00017840   -0.00004458
     atom   10 type  1   force =     0.00004150    0.00009321    0.00010994
     atom   11 type  4   force =     0.00019770    0.00047804    0.00035458
     atom   12 type  4   force =    -0.00011980    0.00008201   -0.00000711
     atom   13 type  4   force =     0.00047855    0.00032137   -0.00037631
     atom   14 type  4   force =    -0.00029078    0.00009438   -0.00023463
     atom   15 type  4   force =     0.00009893    0.00020066    0.00018545
     atom   16 type  4   force =     0.00019949    0.00012591   -0.00010931
     atom   17 type  2   force =     0.00014801    0.00010978    0.00006959
     atom   18 type  2   force =     0.00007800   -0.00011466   -0.00006863
     atom   19 type  2   force =     0.00003373    0.00005401   -0.00010632
     atom   20 type  2   force =     0.00014021   -0.00014869    0.00014153
     atom   21 type  2   force =    -0.00000587    0.00012768   -0.00002988
     atom   22 type  2   force =     0.00002680    0.00010992    0.00008533
     atom   23 type  5   force =    -0.00003104   -0.00003066   -0.00002097
     atom   24 type  5   force =    -0.00004712   -0.00000784   -0.00000314
     atom   25 type  5   force =     0.00002592    0.00001534    0.00000580

     Total force =     0.284735     Total SCF correction =     0.001997


     Computing stress (Cartesian axis) and pressure


     negative rho (up, down):  3.561E-03 0.000E+00
          total   stress  (Ry/bohr**3)                   (kbar)     P=       -4.50
  -0.00004032  -0.00004631  -0.00001647           -5.93       -6.81       -2.42
  -0.00004631  -0.00003263  -0.00004100           -6.81       -4.80       -6.03
  -0.00001647  -0.00004100  -0.00001872           -2.42       -6.03       -2.75

     kinetic stress (kbar)   5351.23    -92.60    -34.71
                              -92.60   5522.88     -7.95
                              -34.71     -7.95   5522.70

     local   stress (kbar)  -4705.32    560.92    452.56
                              560.92 -14100.89    -76.99
                              452.56    -76.99 -27839.02

     nonloc. stress (kbar)    954.20    -14.48     -5.99
                              -14.48    976.21      3.82
                               -5.99      3.82    983.01

     hartree stress (kbar)   2413.25   -364.17   -266.76
                             -364.17   7371.17     18.61
                             -266.76     18.61  13975.02

     exc-cor stress (kbar)   -901.62      1.60      0.95
                                1.60   -906.19      0.46
                                0.95      0.46   -905.90

     corecor stress (kbar)   -257.52      0.36      0.05
                                0.36   -258.43     -0.14
                                0.05     -0.14   -258.51

     ewald   stress (kbar)  -2860.15    -98.44   -148.52
                              -98.44   1390.45     56.15
                             -148.52     56.15   8519.95

     hubbard stress (kbar)      0.00      0.00      0.00
                                0.00      0.00      0.00
                                0.00      0.00      0.00

     DFT-D   stress (kbar)      0.00      0.00      0.00
                                0.00      0.00      0.00
                                0.00      0.00      0.00

     XDM     stress (kbar)      0.00      0.00      0.00
                                0.00      0.00      0.00
                                0.00      0.00      0.00

     dft-nl  stress (kbar)      0.00      0.00      0.00
                                0.00      0.00      0.00
                                0.00      0.00      0.00

     TS-vdW  stress (kbar)      0.00      0.00      0.00
                                0.00      0.00      0.00
                                0.00      0.00      0.00

     MDB     stress (kbar)      0.00      0.00      0.00
                                0.00      0.00      0.00
                                0.00      0.00      0.00

     3D-RISM stress (kbar)      0.00      0.00      0.00
                                0.00      0.00      0.00
                                0.00      0.00      0.00


     Writing all to output data dir ./energyiron-alt.save/
     init_run     :    438.39s CPU    151.04s WALL (       1 calls)
     electrons    :  15786.84s CPU   5353.30s WALL (       1 calls)
     forces       :    152.94s CPU     97.65s WALL (       1 calls)
     stress       :   3250.47s CPU    974.24s WALL (       1 calls)

     Called by init_run:
     wfcinit      :    403.05s CPU    132.09s WALL (       1 calls)
     wfcinit:atom :      1.62s CPU      2.23s WALL (      10 calls)
     wfcinit:wfcr :    389.53s CPU    117.25s WALL (      10 calls)
     potinit      :     16.24s CPU      5.55s WALL (       1 calls)
     hinit0       :     16.12s CPU     10.64s WALL (       1 calls)

     Called by electrons:
     c_bands      :  13777.03s CPU   4673.68s WALL (      12 calls)
     sum_band     :   1852.89s CPU    616.62s WALL (      12 calls)
     v_of_rho     :     32.72s CPU     18.41s WALL (      13 calls)
     v_h          :      1.96s CPU      0.70s WALL (      13 calls)
     v_xc         :     35.32s CPU     19.66s WALL (      15 calls)
     newd         :     44.91s CPU     20.05s WALL (      13 calls)
     PAW_pot      :     80.57s CPU     10.70s WALL (      13 calls)
     mix_rho      :      4.90s CPU      8.57s WALL (      12 calls)

     Called by c_bands:
     init_us_2    :     33.95s CPU    128.32s WALL (     270 calls)
     init_us_2:cp :     33.93s CPU    128.27s WALL (     270 calls)
     cegterg      :  13661.66s CPU   4215.12s WALL (     120 calls)

     Called by sum_band:
     sum_band:wei :      0.01s CPU      0.04s WALL (      12 calls)
     sum_band:loo :   1815.00s CPU    476.04s WALL (      12 calls)
     sum_band:buf :     14.20s CPU     37.28s WALL (     120 calls)
     sum_band:ini :     14.96s CPU      3.61s WALL (     120 calls)
     sum_band:cal :    291.93s CPU     32.72s WALL (     120 calls)
     sum_band:bec :     13.23s CPU     -6.40s WALL (     120 calls)
     addusdens    :     32.78s CPU     70.49s WALL (      12 calls)
                                        0.00s GPU  (      12 calls)
     addusd:skk   :      4.31s CPU     10.31s WALL (      48 calls)
                                        0.00s GPU  (      48 calls)

     Called by *egterg:
     cdiaghg      :    208.33s CPU     96.72s WALL (     929 calls)
     cegterg:over :    868.40s CPU    315.31s WALL (     809 calls)
     cegterg:upda :    568.79s CPU    152.13s WALL (     809 calls)
     cegterg:last :   1293.86s CPU    271.57s WALL (     312 calls)
     h_psi        :   9825.01s CPU   3026.60s WALL (     939 calls)
     s_psi        :    880.10s CPU    253.47s WALL (     939 calls)
     g_psi        :     38.99s CPU     16.08s WALL (     809 calls)

     Called by h_psi:
     h_psi:calbec :    906.76s CPU    325.25s WALL (     939 calls)
     vloc_psi     :   8039.04s CPU   2191.39s WALL (     939 calls)
     add_vuspsi   :    838.25s CPU    493.58s WALL (     939 calls)

     General routines
     calbec       :   1320.05s CPU    443.89s WALL (    1109 calls)
     fft          :     15.93s CPU      5.40s WALL (     192 calls)
     ffts         :      2.96s CPU      1.32s WALL (      25 calls)
     fftw         :   7221.00s CPU   1866.73s WALL (  204054 calls)
     interpolate  :      3.67s CPU      1.40s WALL (      13 calls)

     Parallel routines

     PAW routines
     PAW_pot      :     80.57s CPU     10.70s WALL (      13 calls)
     PAW_symme    :      0.05s CPU      0.02s WALL (      25 calls)

     PWSCF        :      5h27m CPU      1h49m WALL


   This run was terminated on:   1:24:04  13Feb2026            

=------------------------------------------------------------------------------=
   JOB DONE.
=------------------------------------------------------------------------------=
