
     Program PWSCF v.7.2 starts on 28Jan2026 at  7:48:27 

     This program is part of the open-source Quantum ESPRESSO suite
     for quantum simulation of materials; please cite
         "P. Giannozzi et al., J. Phys.:Condens. Matter 21 395502 (2009);
         "P. Giannozzi et al., J. Phys.:Condens. Matter 29 465901 (2017);
         "P. Giannozzi et al., J. Chem. Phys. 152 154105 (2020);
          URL http://www.quantum-espresso.org", 
     in publications or presentations arising from this work. More details at
     http://www.quantum-espresso.org/quote

     Parallel version (MPI & OpenMP), running on       4 processor cores
     Number of MPI processes:                 1
     Threads/MPI process:                     4

     MPI processes distributed on     1 nodes
     1696 MiB available memory on the printing compute node when the environment starts

     Reading input from tfa.in

     Current dimensions of program PWSCF are:
     Max number of different atomic species (ntypx) = 10
     Max number of k-points (npk) =  40000
     Max angular momentum in pseudopotentials (lmaxx) =  4
     file F.pbe-n-kjpaw_psl.1.0.0.UPF: wavefunction(s)  2S 2P renormalized
     file C.pbe-n-kjpaw_psl.1.0.0.UPF: wavefunction(s)  2S 2P renormalized
     file H.pbe-kjpaw_psl.1.0.0.UPF: wavefunction(s)  1S renormalized
     file O.pbe-n-kjpaw_psl.1.0.0.UPF: wavefunction(s)  2S 2P renormalized

     IMPORTANT: XC functional enforced from input :
     Exchange-correlation= PBE
                           (   1   4   3   4   0   0   0)
     Any further DFT definition will be discarded
     Please, verify this is what you really want

     Message from routine setup:
     using ibrav=0 with symmetry is DISCOURAGED, use correct ibrav instead

     Subspace diagonalization in iterative solution of the eigenvalue problem:
     a serial algorithm will be used


     G-vector sticks info
     --------------------
     sticks:   dense  smooth     PW     G-vecs:    dense   smooth      PW
     Sum       10797    6181   1633               734029   317145   43339

     Using Slab Decomposition



     bravais-lattice index     =            0
     lattice parameter (alat)  =      19.6909  a.u.
     unit-cell volume          =    6638.3514 (a.u.)^3
     number of atoms/cell      =           88
     number of atomic types    =            4
     number of electrons       =       400.00
     number of Kohn-Sham states=          240
     kinetic-energy cutoff     =      50.0000  Ry
     charge density cutoff     =     350.0000  Ry
     scf convergence threshold =      1.0E-06
     mixing beta               =       0.7000
     number of iterations used =            8  plain     mixing
     Exchange-correlation= PBE
                           (   1   4   3   4   0   0   0)

     celldm(1)=  19.690946  celldm(2)=   0.000000  celldm(3)=   0.000000
     celldm(4)=   0.000000  celldm(5)=   0.000000  celldm(6)=   0.000000

     crystal axes: (cart. coord. in units of alat)
               a(1) = (   1.000000   0.000000   0.000000 )  
               a(2) = (   0.000000   1.000000   0.000000 )  
               a(3) = (   0.500000   0.500000   0.869482 )  

     reciprocal axes: (cart. coord. in units 2 pi/alat)
               b(1) = (  1.000000  0.000000 -0.575055 )  
               b(2) = (  0.000000  1.000000 -0.575055 )  
               b(3) = (  0.000000  0.000000  1.150110 )  


     PseudoPot. # 1 for F  read from file:
     ./F.pbe-n-kjpaw_psl.1.0.0.UPF
     MD5 check sum: 66d718ea72839a4268ab2a9540e8cdd4
     Pseudo is Projector augmented-wave + core cor, Zval =  7.0
     Generated using &quot;atomic&quot; code by A. Dal Corso  v.6.3
     Shape of augmentation charge: PSQ
     Using radial grid of 1105 points,  4 beta functions with: 
                l(1) =   0
                l(2) =   0
                l(3) =   1
                l(4) =   1
     Q(r) pseudized with 0 coefficients 


     PseudoPot. # 2 for C  read from file:
     ./C.pbe-n-kjpaw_psl.1.0.0.UPF
     MD5 check sum: 5f16ad9a65e90284d1d834d4ab3b0f7d
     Pseudo is Projector augmented-wave + core cor, Zval =  4.0
     Generated using &quot;atomic&quot; code by A. Dal Corso  v.6.3
     Shape of augmentation charge: PSQ
     Using radial grid of 1073 points,  4 beta functions with: 
                l(1) =   0
                l(2) =   0
                l(3) =   1
                l(4) =   1
     Q(r) pseudized with 0 coefficients 


     PseudoPot. # 3 for H  read from file:
     ./H.pbe-kjpaw_psl.1.0.0.UPF
     MD5 check sum: d81a744832360e4a8af0b0b5b123bc2a
     Pseudo is Projector augmented-wave, Zval =  1.0
     Generated using &quot;atomic&quot; code by A. Dal Corso  v.6.3MaX
     Shape of augmentation charge: PSQ
     Using radial grid of  929 points,  2 beta functions with: 
                l(1) =   0
                l(2) =   0
     Q(r) pseudized with 0 coefficients 


     PseudoPot. # 4 for O  read from file:
     ./O.pbe-n-kjpaw_psl.1.0.0.UPF
     MD5 check sum: e99d9cef9b487d1ca56f5b95ecd0fd7a
     Pseudo is Projector augmented-wave + core cor, Zval =  6.0
     Generated using &quot;atomic&quot; code by A. Dal Corso  v.6.3
     Shape of augmentation charge: PSQ
     Using radial grid of 1095 points,  4 beta functions with: 
                l(1) =   0
                l(2) =   0
                l(3) =   1
                l(4) =   1
     Q(r) pseudized with 0 coefficients 


     atomic species   valence    mass     pseudopotential
        F              7.00    18.99800     F ( 1.00)
        C              4.00    12.01060     C ( 1.00)
        H              1.00     1.00750     H ( 1.00)
        O              6.00    15.99900     O ( 1.00)

      2 Sym. Ops. (no inversion) found


                                    s                        frac. trans.

      isym =  1     identity                                     

 cryst.   s( 1) = (     1          0          0      )
                  (     0          1          0      )
                  (     0          0          1      )

 cart.    s( 1) = (  1.0000000  0.0000000  0.0000000 )
                  (  0.0000000  1.0000000  0.0000000 )
                  (  0.0000000  0.0000000  1.0000000 )


      isym =  2     180 deg rotation - cart. axis [0,0,1]        

 cryst.   s( 2) = (    -1          0          0      )
                  (     0         -1          0      )
                  (    -1         -1          1      )

 cart.    s( 2) = ( -1.0000000  0.0000000  0.0000000 )
                  (  0.0000000 -1.0000000  0.0000000 )
                  (  0.0000000  0.0000000  1.0000000 )


   Cartesian axes

     site n.     atom                  positions (alat units)
         1           F   tau(   1) = (   0.8313000   1.4337000   0.7644484  )
         2           F   tau(   2) = (   0.6687000   0.4337000   0.5397743  )
         3           F   tau(   3) = (   1.0663000   1.1687000   0.3297075  )
         4           F   tau(   4) = (   0.0663000   0.3313000   0.1050334  )
         5           F   tau(   5) = (   0.9337000   0.6687000   0.1050334  )
         6           F   tau(   6) = (   1.1687000   0.5663000   0.7644484  )
         7           F   tau(   7) = (   0.3313000   0.5663000   0.5397743  )
         8           F   tau(   8) = (   0.9337000   0.8313000   0.3297075  )
         9           F   tau(   9) = (   0.8690000   0.6313000   0.7960975  )
        10           F   tau(  10) = (   0.6310000   0.6313000   0.5081251  )
        11           F   tau(  11) = (   0.8687000   1.1310000   0.3613566  )
        12           F   tau(  12) = (   0.8687000   0.3690000   0.0733843  )
        13           F   tau(  13) = (   0.1313000   0.6310000   0.0733843  )
        14           F   tau(  14) = (   1.1310000   1.3687000   0.7960975  )
        15           F   tau(  15) = (   0.3690000   0.3687000   0.5081251  )
        16           F   tau(  16) = (   1.1313000   0.8690000   0.3613566  )
        17           F   tau(  17) = (   0.6793000   0.5592000   0.8115743  )
        18           F   tau(  18) = (   0.8207000   0.5592000   0.4926484  )
        19           F   tau(  19) = (   0.9408000   0.3207000   0.3768334  )
        20           F   tau(  20) = (   0.9408000   0.1793000   0.0579075  )
        21           F   tau(  21) = (   0.0592000   0.8207000   0.0579075  )
        22           F   tau(  22) = (   1.3207000   1.4408000   0.8115743  )
        23           F   tau(  23) = (   1.1793000   0.4408000   0.4926484  )
        24           F   tau(  24) = (   1.0592000   0.6793000   0.3768334  )
        25           O   tau(  25) = (   0.2903000   0.1041000   0.1756353  )
        26           O   tau(  26) = (   0.7097000   0.6041000   0.2591056  )
        27           O   tau(  27) = (   0.8959000   1.2097000   0.6103762  )
        28           O   tau(  28) = (   1.3959000   0.7903000   0.6938464  )
        29           O   tau(  29) = (   0.6041000   1.2097000   0.6938464  )
        30           O   tau(  30) = (   0.7097000   0.8959000   0.1756353  )
        31           O   tau(  31) = (   0.2903000   0.3959000   0.2591056  )
        32           O   tau(  32) = (   1.1041000   0.7903000   0.6103762  )
        33           O   tau(  33) = (   0.3685000   0.9052000   0.1446818  )
        34           O   tau(  34) = (   0.6315000   0.4052000   0.2900591  )
        35           O   tau(  35) = (   1.0948000   1.1315000   0.5796545  )
        36           O   tau(  36) = (   0.5948000   0.8685000   0.7248000  )
        37           O   tau(  37) = (   1.4052000   1.1315000   0.7248000  )
        38           O   tau(  38) = (   0.6315000   0.0948000   0.1446818  )
        39           O   tau(  39) = (   0.3685000   0.5948000   0.2900591  )
        40           O   tau(  40) = (   0.9052000   0.8685000   0.5796545  )
        41           O   tau(  41) = (   0.3242000   1.0719000   0.4211770  )
        42           O   tau(  42) = (   0.6758000   0.5719000   0.0135639  )
        43           O   tau(  43) = (   0.9281000   1.1758000   0.8559179  )
        44           O   tau(  44) = (   0.4281000   0.8242000   0.4483048  )
        45           O   tau(  45) = (   0.5719000   1.1758000   0.4483048  )
        46           O   tau(  46) = (   0.6758000   0.9281000   0.4211770  )
        47           O   tau(  47) = (   0.3242000   0.4281000   0.0135639  )
        48           O   tau(  48) = (   1.0719000   0.8242000   0.8559179  )
        49           C   tau(  49) = (   0.8010000   0.5317000   0.8343547  )
        50           C   tau(  50) = (   0.6990000   0.5317000   0.4698679  )
        51           C   tau(  51) = (   0.9683000   1.1990000   0.3996138  )
        52           C   tau(  52) = (   0.9683000   0.3010000   0.0351271  )
        53           C   tau(  53) = (   0.0317000   0.6990000   0.0351271  )
        54           C   tau(  54) = (   1.1990000   1.4683000   0.8343547  )
        55           C   tau(  55) = (   0.3010000   0.4683000   0.4698679  )
        56           C   tau(  56) = (   1.0317000   0.8010000   0.3996138  )
        57           C   tau(  57) = (   0.3241000   1.0049000   0.1088591  )
        58           C   tau(  58) = (   0.6759000   0.5049000   0.3258818  )
        59           C   tau(  59) = (   0.9951000   1.1759000   0.5436000  )
        60           C   tau(  60) = (   0.4951000   0.8241000   0.7606226  )
        61           C   tau(  61) = (   0.5049000   1.1759000   0.7606226  )
        62           C   tau(  62) = (   0.6759000   0.9951000   0.1088591  )
        63           C   tau(  63) = (   0.3241000   0.4951000   0.3258818  )
        64           C   tau(  64) = (   1.0049000   0.8241000   0.5436000  )
        65           H   tau(  65) = (   0.3090000   1.0820000   0.2643225  )
        66           H   tau(  66) = (   0.6910000   0.5820000   0.1704184  )
        67           H   tau(  67) = (   0.9180000   1.1910000   0.6990633  )
        68           H   tau(  68) = (   0.4180000   0.8090000   0.6051593  )
        69           H   tau(  69) = (   0.5820000   1.1910000   0.6051593  )
        70           H   tau(  70) = (   0.6910000   0.9180000   0.2643225  )
        71           H   tau(  71) = (   0.3090000   0.4180000   0.1704184  )
        72           H   tau(  72) = (   1.0820000   0.8090000   0.6990633  )
        73           H   tau(  73) = (   1.2680000   1.0990000   0.4677812  )
        74           H   tau(  74) = (   1.2320000   1.0990000   0.8364415  )
        75           H   tau(  75) = (   0.4010000   0.7320000   0.0330403  )
        76           H   tau(  76) = (   0.4010000   0.7680000   0.4017006  )
        77           H   tau(  77) = (   0.5990000   0.2320000   0.4017006  )
        78           H   tau(  78) = (   0.7320000   0.9010000   0.4677812  )
        79           H   tau(  79) = (   0.7680000   0.9010000   0.8364415  )
        80           H   tau(  80) = (   0.5990000   0.2680000   0.0330403  )
        81           H   tau(  81) = (   0.3770000   1.1170000   0.4434357  )
        82           H   tau(  82) = (   1.1230000   1.1170000   0.8607869  )
        83           H   tau(  83) = (   0.3830000   0.6230000   0.0086948  )
        84           H   tau(  84) = (   0.3830000   0.8770000   0.4260461  )
        85           H   tau(  85) = (   0.6170000   1.1230000   0.4260461  )
        86           H   tau(  86) = (   0.6230000   0.8830000   0.4434357  )
        87           H   tau(  87) = (   0.8770000   0.8830000   0.8607869  )
        88           H   tau(  88) = (   0.6170000   0.3770000   0.0086948  )

   Crystallographic axes

     site n.     atom                  positions (cryst. coord.)
         1           F   tau(   1) = (  0.3917000  0.9941000  0.8792000  )
         2           F   tau(   2) = (  0.3583000  0.1233000  0.6208000  )
         3           F   tau(   3) = (  0.8767000  0.9791000  0.3792000  )
         4           F   tau(   4) = (  0.0059000  0.2709000  0.1208000  )
         5           F   tau(   5) = (  0.8733000  0.6083000  0.1208000  )
         6           F   tau(   6) = (  0.7291000  0.1267000  0.8792000  )
         7           F   tau(   7) = (  0.0209000  0.2559000  0.6208000  )
         8           F   tau(   8) = (  0.7441000  0.6417000  0.3792000  )
         9           F   tau(   9) = (  0.4112000  0.1735000  0.9156000  )
        10           F   tau(  10) = (  0.3388000  0.3391000  0.5844000  )
        11           F   tau(  11) = (  0.6609000  0.9232000  0.4156000  )
        12           F   tau(  12) = (  0.8265000  0.3268000  0.0844000  )
        13           F   tau(  13) = (  0.0891000  0.5888000  0.0844000  )
        14           F   tau(  14) = (  0.6732000  0.9109000  0.9156000  )
        15           F   tau(  15) = (  0.0768000  0.0765000  0.5844000  )
        16           F   tau(  16) = (  0.9235000  0.6612000  0.4156000  )
        17           F   tau(  17) = (  0.2126000  0.0925000  0.9334000  )
        18           F   tau(  18) = (  0.5374000  0.2759000  0.5666000  )
        19           F   tau(  19) = (  0.7241000  0.1040000  0.4334000  )
        20           F   tau(  20) = (  0.9075000  0.1460000  0.0666000  )
        21           F   tau(  21) = (  0.0259000  0.7874000  0.0666000  )
        22           F   tau(  22) = (  0.8540000  0.9741000  0.9334000  )
        23           F   tau(  23) = (  0.8960000  0.1575000  0.5666000  )
        24           F   tau(  24) = (  0.8425000  0.4626000  0.4334000  )
        25           O   tau(  25) = (  0.1893000  0.0031000  0.2020000  )
        26           O   tau(  26) = (  0.5607000  0.4551000  0.2980000  )
        27           O   tau(  27) = (  0.5449000  0.8587000  0.7020000  )
        28           O   tau(  28) = (  0.9969000  0.3913000  0.7980000  )
        29           O   tau(  29) = (  0.2051000  0.8107000  0.7980000  )
        30           O   tau(  30) = (  0.6087000  0.7949000  0.2020000  )
        31           O   tau(  31) = (  0.1413000  0.2469000  0.2980000  )
        32           O   tau(  32) = (  0.7531000  0.4393000  0.7020000  )
        33           O   tau(  33) = (  0.2853000  0.8220000  0.1664000  )
        34           O   tau(  34) = (  0.4647000  0.2384000  0.3336000  )
        35           O   tau(  35) = (  0.7614667  0.7981667  0.6666667  )
        36           O   tau(  36) = (  0.1780000  0.4517000  0.8336000  )
        37           O   tau(  37) = (  0.9884000  0.7147000  0.8336000  )
        38           O   tau(  38) = (  0.5483000  0.0116000  0.1664000  )
        39           O   tau(  39) = (  0.2017000  0.4280000  0.3336000  )
        40           O   tau(  40) = (  0.5718667  0.5351667  0.6666667  )
        41           O   tau(  41) = (  0.0820000  0.8297000  0.4844000  )
        42           O   tau(  42) = (  0.6680000  0.5641000  0.0156000  )
        43           O   tau(  43) = (  0.4359000  0.6836000  0.9844000  )
        44           O   tau(  44) = (  0.1703000  0.5664000  0.5156000  )
        45           O   tau(  45) = (  0.3141000  0.9180000  0.5156000  )
        46           O   tau(  46) = (  0.4336000  0.6859000  0.4844000  )
        47           O   tau(  47) = (  0.3164000  0.4203000  0.0156000  )
        48           O   tau(  48) = (  0.5797000  0.3320000  0.9844000  )
        49           C   tau(  49) = (  0.3212000  0.0519000  0.9596000  )
        50           C   tau(  50) = (  0.4288000  0.2615000  0.5404000  )
        51           C   tau(  51) = (  0.7385000  0.9692000  0.4596000  )
        52           C   tau(  52) = (  0.9481000  0.2808000  0.0404000  )
        53           C   tau(  53) = (  0.0115000  0.6788000  0.0404000  )
        54           C   tau(  54) = (  0.7192000  0.9885000  0.9596000  )
        55           C   tau(  55) = (  0.0308000  0.1981000  0.5404000  )
        56           C   tau(  56) = (  0.8019000  0.5712000  0.4596000  )
        57           C   tau(  57) = (  0.2615000  0.9423000  0.1252000  )
        58           C   tau(  58) = (  0.4885000  0.3175000  0.3748000  )
        59           C   tau(  59) = (  0.6825000  0.8633000  0.6252000  )
        60           C   tau(  60) = (  0.0577000  0.3867000  0.8748000  )
        61           C   tau(  61) = (  0.0675000  0.7385000  0.8748000  )
        62           C   tau(  62) = (  0.6133000  0.9325000  0.1252000  )
        63           C   tau(  63) = (  0.1367000  0.3077000  0.3748000  )
        64           C   tau(  64) = (  0.6923000  0.5115000  0.6252000  )
        65           H   tau(  65) = (  0.1570000  0.9300000  0.3040000  )
        66           H   tau(  66) = (  0.5930000  0.4840000  0.1960000  )
        67           H   tau(  67) = (  0.5160000  0.7890000  0.8040000  )
        68           H   tau(  68) = (  0.0700000  0.4610000  0.6960000  )
        69           H   tau(  69) = (  0.2340000  0.8430000  0.6960000  )
        70           H   tau(  70) = (  0.5390000  0.7660000  0.3040000  )
        71           H   tau(  71) = (  0.2110000  0.3200000  0.1960000  )
        72           H   tau(  72) = (  0.6800000  0.4070000  0.8040000  )
        73           H   tau(  73) = (  0.9990000  0.8300000  0.5380000  )
        74           H   tau(  74) = (  0.7510000  0.6180000  0.9620000  )
        75           H   tau(  75) = (  0.3820000  0.7130000  0.0380000  )
        76           H   tau(  76) = (  0.1700000  0.5370000  0.4620000  )
        77           H   tau(  77) = (  0.3680000  0.0010000  0.4620000  )
        78           H   tau(  78) = (  0.4630000  0.6320000  0.5380000  )
        79           H   tau(  79) = (  0.2870000  0.4200000  0.9620000  )
        80           H   tau(  80) = (  0.5800000  0.2490000  0.0380000  )
        81           H   tau(  81) = (  0.1220000  0.8620000  0.5100000  )
        82           H   tau(  82) = (  0.6280000  0.6220000  0.9900000  )
        83           H   tau(  83) = (  0.3780000  0.6180000  0.0100000  )
        84           H   tau(  84) = (  0.1380000  0.6320000  0.4900000  )
        85           H   tau(  85) = (  0.3720000  0.8780000  0.4900000  )
        86           H   tau(  86) = (  0.3680000  0.6280000  0.5100000  )
        87           H   tau(  87) = (  0.3820000  0.3880000  0.9900000  )
        88           H   tau(  88) = (  0.6120000  0.3720000  0.0100000  )

     number of k points=    10  Marzari-Vanderbilt smearing, width (Ry)=  0.0050
                       cart. coord. in units 2pi/alat
        k(    1) = (   0.0000000   0.0000000   0.0000000), wk =   0.0740741
        k(    2) = (   0.0000000   0.0000000   0.3833701), wk =   0.1481481
        k(    3) = (   0.0000000   0.3333333  -0.1916851), wk =   0.2962963
        k(    4) = (   0.0000000   0.3333333  -0.5750552), wk =   0.1481481
        k(    5) = (   0.3333333   0.3333333  -0.3833701), wk =   0.2962963
        k(    6) = (   0.3333333   0.3333333   0.0000000), wk =   0.1481481
        k(    7) = (   0.3333333   0.0000000   0.1916851), wk =   0.2962963
        k(    8) = (   0.3333333   0.0000000   0.5750552), wk =   0.1481481
        k(    9) = (  -0.3333333   0.3333333   0.3833701), wk =   0.2962963
        k(   10) = (  -0.3333333   0.3333333   0.0000000), wk =   0.1481481

                       cryst. coord.
        k(    1) = (   0.0000000   0.0000000   0.0000000), wk =   0.0740741
        k(    2) = (   0.0000000   0.0000000   0.3333333), wk =   0.1481481
        k(    3) = (   0.0000000   0.3333333   0.0000000), wk =   0.2962963
        k(    4) = (   0.0000000   0.3333333  -0.3333333), wk =   0.1481481
        k(    5) = (   0.3333333   0.3333333   0.0000000), wk =   0.2962963
        k(    6) = (   0.3333333   0.3333333   0.3333333), wk =   0.1481481
        k(    7) = (   0.3333333   0.0000000   0.3333333), wk =   0.2962963
        k(    8) = (   0.3333333   0.0000000   0.6666667), wk =   0.1481481
        k(    9) = (  -0.3333333   0.3333333   0.3333333), wk =   0.2962963
        k(   10) = (  -0.3333333   0.3333333   0.0000000), wk =   0.1481481

     Dense  grid:   734029 G-vectors     FFT dimensions: ( 120, 120, 135)

     Smooth grid:   317145 G-vectors     FFT dimensions: (  90,  90, 100)

     Dynamical RAM for                 wfc:     145.14 MB

     Dynamical RAM for     wfc (w. buffer):    1596.58 MB

     Dynamical RAM for           str. fact:      44.80 MB

     Dynamical RAM for           local pot:       0.00 MB

     Dynamical RAM for          nlocal pot:     338.67 MB

     Dynamical RAM for                qrad:       1.72 MB

     Dynamical RAM for          rho,v,vnew:      78.10 MB

     Dynamical RAM for               rhoin:      26.03 MB

     Dynamical RAM for            rho*nmix:     179.21 MB

     Dynamical RAM for           G-vectors:      44.42 MB

     Dynamical RAM for          h,s,v(r/c):      10.55 MB

     Dynamical RAM for          <psi|beta>:       2.05 MB

     Dynamical RAM for                 psi:     290.29 MB

     Dynamical RAM for                hpsi:     290.29 MB

     Dynamical RAM for                spsi:     290.29 MB

     Dynamical RAM for      wfcinit/wfcrot:     340.47 MB

     Dynamical RAM for           addusdens:     750.43 MB

     Dynamical RAM for          addusforce:    1271.26 MB

     Dynamical RAM for         addusstress:     560.02 MB

     Estimated static dynamical RAM per process >       2.21 GB

     Estimated max dynamical RAM per process >       3.62 GB

     Check: negative core charge=   -0.000006

     Initial potential from superposition of free atoms

     starting charge     399.9991, renormalised to     400.0000
     Starting wfcs are  280 randomized atomic wfcs
     Checking if some PAW data can be deallocated... 

     total cpu time spent up to now is      151.5 secs

     Self-consistent Calculation

     iteration #  1     ecut=    50.00 Ry     beta= 0.70
     Davidson diagonalization with overlap

---- Real-time Memory Report at c_bands before calling an iterative solver
          2491 MiB given to the printing process from OS
         -1775 MiB allocation reported by mallinfo(arena+hblkhd)
           316 MiB available memory on the node where the printing process lives
------------------
     ethr =  1.00E-02,  avg # of iterations =  7.1

     total cpu time spent up to now is      572.5 secs

     total energy              =   -2741.62421936 Ry
     estimated scf accuracy    <      10.81481375 Ry

     iteration #  2     ecut=    50.00 Ry     beta= 0.70
     Davidson diagonalization with overlap

---- Real-time Memory Report at c_bands before calling an iterative solver
          3030 MiB given to the printing process from OS
         -1676 MiB allocation reported by mallinfo(arena+hblkhd)
           791 MiB available memory on the node where the printing process lives
------------------
     ethr =  2.70E-03,  avg # of iterations =  6.4

     total cpu time spent up to now is     1076.0 secs

     total energy              =   -2744.63456171 Ry
     estimated scf accuracy    <       8.29504807 Ry

     iteration #  3     ecut=    50.00 Ry     beta= 0.70
     Davidson diagonalization with overlap

---- Real-time Memory Report at c_bands before calling an iterative solver
          3166 MiB given to the printing process from OS
         -1667 MiB allocation reported by mallinfo(arena+hblkhd)
           792 MiB available memory on the node where the printing process lives
------------------
     ethr =  2.07E-03,  avg # of iterations =  2.0

     total cpu time spent up to now is     1394.7 secs

     total energy              =   -2746.05608207 Ry
     estimated scf accuracy    <       0.64029007 Ry

     iteration #  4     ecut=    50.00 Ry     beta= 0.70
     Davidson diagonalization with overlap

---- Real-time Memory Report at c_bands before calling an iterative solver
          3166 MiB given to the printing process from OS
         -1657 MiB allocation reported by mallinfo(arena+hblkhd)
           774 MiB available memory on the node where the printing process lives
------------------
     ethr =  1.60E-04,  avg # of iterations = 10.3

     total cpu time spent up to now is     1966.6 secs

     total energy              =   -2746.61318096 Ry
     estimated scf accuracy    <       0.16276033 Ry

     iteration #  5     ecut=    50.00 Ry     beta= 0.70
     Davidson diagonalization with overlap

---- Real-time Memory Report at c_bands before calling an iterative solver
          3166 MiB given to the printing process from OS
         -1647 MiB allocation reported by mallinfo(arena+hblkhd)
           788 MiB available memory on the node where the printing process lives
------------------
     c_bands:  1 eigenvalues not converged
     ethr =  4.07E-05,  avg # of iterations = 11.6

     total cpu time spent up to now is     2358.1 secs

     total energy              =   -2746.62280985 Ry
     estimated scf accuracy    <       0.03410025 Ry

     iteration #  6     ecut=    50.00 Ry     beta= 0.70
     Davidson diagonalization with overlap

---- Real-time Memory Report at c_bands before calling an iterative solver
          3166 MiB given to the printing process from OS
         -1638 MiB allocation reported by mallinfo(arena+hblkhd)
           788 MiB available memory on the node where the printing process lives
------------------
     c_bands:  1 eigenvalues not converged
     c_bands:  1 eigenvalues not converged
     ethr =  8.53E-06,  avg # of iterations =  9.4

     total cpu time spent up to now is     2859.0 secs

     total energy              =   -2746.63499035 Ry
     estimated scf accuracy    <       0.00450325 Ry

     iteration #  7     ecut=    50.00 Ry     beta= 0.70
     Davidson diagonalization with overlap

---- Real-time Memory Report at c_bands before calling an iterative solver
          3200 MiB given to the printing process from OS
         -1628 MiB allocation reported by mallinfo(arena+hblkhd)
           769 MiB available memory on the node where the printing process lives
------------------
     c_bands:  1 eigenvalues not converged
     c_bands:  1 eigenvalues not converged
     ethr =  1.13E-06,  avg # of iterations = 11.3

     total cpu time spent up to now is     3345.0 secs

     total energy              =   -2746.63634623 Ry
     estimated scf accuracy    <       0.00096241 Ry

     iteration #  8     ecut=    50.00 Ry     beta= 0.70
     Davidson diagonalization with overlap

---- Real-time Memory Report at c_bands before calling an iterative solver
          3200 MiB given to the printing process from OS
         -1618 MiB allocation reported by mallinfo(arena+hblkhd)
           802 MiB available memory on the node where the printing process lives
------------------
     ethr =  2.41E-07,  avg # of iterations =  7.6

     total cpu time spent up to now is     3773.5 secs

     total energy              =   -2746.63654101 Ry
     estimated scf accuracy    <       0.00040388 Ry

     iteration #  9     ecut=    50.00 Ry     beta= 0.70
     Davidson diagonalization with overlap

---- Real-time Memory Report at c_bands before calling an iterative solver
          3200 MiB given to the printing process from OS
         -1608 MiB allocation reported by mallinfo(arena+hblkhd)
           833 MiB available memory on the node where the printing process lives
------------------
     ethr =  1.01E-07,  avg # of iterations =  3.3

     total cpu time spent up to now is     4094.1 secs

     total energy              =   -2746.63658112 Ry
     estimated scf accuracy    <       0.00005900 Ry

     iteration # 10     ecut=    50.00 Ry     beta= 0.70
     Davidson diagonalization with overlap

---- Real-time Memory Report at c_bands before calling an iterative solver
          3200 MiB given to the printing process from OS
         -1599 MiB allocation reported by mallinfo(arena+hblkhd)
           780 MiB available memory on the node where the printing process lives
------------------
     ethr =  1.48E-08,  avg # of iterations =  5.4

     total cpu time spent up to now is     4634.2 secs

     total energy              =   -2746.63661494 Ry
     estimated scf accuracy    <       0.00001557 Ry

     iteration # 11     ecut=    50.00 Ry     beta= 0.70
     Davidson diagonalization with overlap

---- Real-time Memory Report at c_bands before calling an iterative solver
          3200 MiB given to the printing process from OS
         -1599 MiB allocation reported by mallinfo(arena+hblkhd)
           805 MiB available memory on the node where the printing process lives
------------------
     ethr =  3.89E-09,  avg # of iterations =  2.0

     total cpu time spent up to now is     4994.9 secs

     total energy              =   -2746.63661577 Ry
     estimated scf accuracy    <       0.00000250 Ry

     iteration # 12     ecut=    50.00 Ry     beta= 0.70
     Davidson diagonalization with overlap

---- Real-time Memory Report at c_bands before calling an iterative solver
          3200 MiB given to the printing process from OS
         -1599 MiB allocation reported by mallinfo(arena+hblkhd)
           771 MiB available memory on the node where the printing process lives
------------------
     ethr =  6.25E-10,  avg # of iterations =  4.5

     total cpu time spent up to now is     5504.3 secs

     End of self-consistent calculation

          k = 0.0000 0.0000 0.0000 ( 39631 PWs)   bands (ev):

   -27.6110 -27.5933 -27.5914 -27.5899 -27.5716 -27.5572 -27.5538 -27.5524
   -25.0756 -25.0741 -25.0636 -25.0588 -25.0529 -25.0516 -25.0399 -25.0380
   -24.8285 -24.8120 -24.8000 -24.7983 -24.7871 -24.7842 -24.7827 -24.7720
   -22.5421 -22.4978 -22.4419 -22.4414 -22.4001 -22.3997 -22.3970 -22.3825
   -22.2493 -22.2067 -22.1828 -22.1823 -22.1347 -22.1343 -22.0964 -22.0528
   -20.0597 -20.0439 -20.0432 -20.0397 -20.0392 -20.0289 -20.0243 -20.0173
   -12.5007 -12.4542 -12.4453 -12.4436 -12.4300 -12.3890 -12.3873 -12.3511
   -10.3304 -10.3229 -10.2527 -10.2519 -10.1939 -10.1399 -10.1390 -10.0927
    -8.8953  -8.8945  -8.8516  -8.8371  -8.8364  -8.8315  -8.8244  -8.8179
    -8.7836  -8.7661  -8.7333  -8.7127  -8.7117  -8.6791  -8.6734  -8.6668
    -8.6658  -8.6430  -8.6202  -8.6199  -8.5966  -8.5849  -8.5846  -8.5812
    -8.2199  -8.1510  -8.1509  -8.0709  -7.9883  -7.9363  -7.9361  -7.8774
    -6.2293  -6.2283  -6.2205  -6.1311  -6.1101  -6.0853  -6.0841  -6.0290
    -5.7201  -5.6827  -5.6396  -5.6279  -5.5196  -5.5068  -5.5060  -5.3732
    -5.3727  -5.3276  -5.2648  -5.2644  -5.2412  -5.2406  -5.2231  -5.2227
    -5.1625  -5.1343  -5.1133  -5.0991  -5.0533  -5.0047  -4.9928  -4.9922
    -4.9661  -4.9657  -4.9443  -4.8474  -4.8471  -4.8353  -4.8350  -4.7250
    -4.6561  -4.4987  -4.4986  -4.3714  -4.3713  -4.3659  -4.3285  -4.2986
    -4.2145  -4.1458  -4.1454  -4.1211  -4.1043  -4.1040  -4.0955  -4.0702
    -4.0157  -3.9538  -3.8448  -3.8365  -3.8356  -3.7944  -3.7935  -3.7926
    -3.4705  -3.4692  -3.4354  -3.4341  -3.4026  -3.3715  -3.3603  -3.3200
    -3.1378  -3.1253  -3.1014  -3.1012  -2.9923  -2.9921  -2.9895  -2.9647
    -2.1128  -2.1128  -2.1119  -2.0854  -2.0305  -2.0299  -2.0134  -2.0129
    -2.0037  -1.9883  -1.9345  -1.9336  -1.9317  -1.9110  -1.9098  -1.9077
    -0.9128  -0.8132  -0.8110  -0.8109  -0.7909  -0.7861  -0.7349  -0.7348
     4.4618   4.4857   4.4881   4.6194   4.6217   4.6325   4.6535   4.7173
     5.9322   7.3297   7.6027   7.6912   7.6993   7.6997   7.7292   7.7374
     7.8884   7.8896   8.2435   8.4620   8.4983   8.8890   8.8896   9.1502
     9.2326   9.2346   9.2437   9.4377   9.4875   9.4995   9.5003   9.5639
     9.7448   9.8289   9.8307   9.9109  10.0404  10.2452  10.2463  10.2583

     occupation numbers 
     1.0000   1.0000   1.0000   1.0000   1.0000   1.0000   1.0000   1.0000
     1.0000   1.0000   1.0000   1.0000   1.0000   1.0000   1.0000   1.0000
     1.0000   1.0000   1.0000   1.0000   1.0000   1.0000   1.0000   1.0000
     1.0000   1.0000   1.0000   1.0000   1.0000   1.0000   1.0000   1.0000
     1.0000   1.0000   1.0000   1.0000   1.0000   1.0000   1.0000   1.0000
     1.0000   1.0000   1.0000   1.0000   1.0000   1.0000   1.0000   1.0000
     1.0000   1.0000   1.0000   1.0000   1.0000   1.0000   1.0000   1.0000
     1.0000   1.0000   1.0000   1.0000   1.0000   1.0000   1.0000   1.0000
     1.0000   1.0000   1.0000   1.0000   1.0000   1.0000   1.0000   1.0000
     1.0000   1.0000   1.0000   1.0000   1.0000   1.0000   1.0000   1.0000
     1.0000   1.0000   1.0000   1.0000   1.0000   1.0000   1.0000   1.0000
     1.0000   1.0000   1.0000   1.0000   1.0000   1.0000   1.0000   1.0000
     1.0000   1.0000   1.0000   1.0000   1.0000   1.0000   1.0000   1.0000
     1.0000   1.0000   1.0000   1.0000   1.0000   1.0000   1.0000   1.0000
     1.0000   1.0000   1.0000   1.0000   1.0000   1.0000   1.0000   1.0000
     1.0000   1.0000   1.0000   1.0000   1.0000   1.0000   1.0000   1.0000
     1.0000   1.0000   1.0000   1.0000   1.0000   1.0000   1.0000   1.0000
     1.0000   1.0000   1.0000   1.0000   1.0000   1.0000   1.0000   1.0000
     1.0000   1.0000   1.0000   1.0000   1.0000   1.0000   1.0000   1.0000
     1.0000   1.0000   1.0000   1.0000   1.0000   1.0000   1.0000   1.0000
     1.0000   1.0000   1.0000   1.0000   1.0000   1.0000   1.0000   1.0000
     1.0000   1.0000   1.0000   1.0000   1.0000   1.0000   1.0000   1.0000
     1.0000   1.0000   1.0000   1.0000   1.0000   1.0000   1.0000   1.0000
     1.0000   1.0000   1.0000   1.0000   1.0000   1.0000   1.0000   1.0000
     1.0000   1.0000   1.0000   1.0000   1.0000   1.0000   1.0000   1.0000
     0.0000   0.0000   0.0000   0.0000   0.0000   0.0000   0.0000   0.0000
     0.0000   0.0000   0.0000   0.0000   0.0000   0.0000   0.0000   0.0000
     0.0000   0.0000   0.0000   0.0000   0.0000   0.0000   0.0000   0.0000
     0.0000   0.0000   0.0000   0.0000   0.0000   0.0000   0.0000   0.0000
     0.0000   0.0000   0.0000   0.0000   0.0000   0.0000   0.0000   0.0000

          k = 0.0000 0.0000 0.3834 ( 39670 PWs)   bands (ev):

   -27.6076 -27.5991 -27.5915 -27.5899 -27.5666 -27.5598 -27.5538 -27.5524
   -25.0756 -25.0741 -25.0626 -25.0599 -25.0529 -25.0515 -25.0397 -25.0382
   -24.8253 -24.8174 -24.8000 -24.7983 -24.7842 -24.7827 -24.7820 -24.7748
   -22.5329 -22.5116 -22.4342 -22.4337 -22.4105 -22.4099 -22.3920 -22.3831
   -22.2403 -22.2178 -22.1694 -22.1689 -22.1456 -22.1451 -22.0843 -22.0628
   -20.0551 -20.0455 -20.0420 -20.0397 -20.0379 -20.0307 -20.0263 -20.0189
   -12.4837 -12.4472 -12.4454 -12.4424 -12.4298 -12.3874 -12.3857 -12.3846
   -10.2955 -10.2659 -10.2310 -10.2302 -10.2293 -10.1621 -10.1611 -10.1473
    -8.8839  -8.8831  -8.8545  -8.8538  -8.8437  -8.8306  -8.8165  -8.8095
    -8.7905  -8.7899  -8.7196  -8.7045  -8.7035  -8.6795  -8.6766  -8.6754
    -8.6707  -8.6697  -8.6210  -8.6206  -8.5991  -8.5988  -8.5925  -8.5857
    -8.1306  -8.1128  -8.1125  -8.0372  -7.9964  -7.9616  -7.9566  -7.9564
    -6.2259  -6.2249  -6.1994  -6.1561  -6.0954  -6.0931  -6.0917  -6.0552
    -5.6982  -5.6719  -5.6576  -5.6433  -5.4900  -5.4891  -5.4510  -5.4035
    -5.4031  -5.3101  -5.2901  -5.2872  -5.2867  -5.2538  -5.2294  -5.2072
    -5.1641  -5.1633  -5.0925  -5.0754  -5.0206  -5.0201  -4.9995  -4.9523
    -4.9430  -4.9426  -4.8884  -4.8559  -4.8557  -4.8468  -4.8464  -4.7923
    -4.6001  -4.5307  -4.5306  -4.4213  -4.4102  -4.3209  -4.3209  -4.2252
    -4.1836  -4.1545  -4.1344  -4.1337  -4.1170  -4.1165  -4.0916  -4.0785
    -4.0116  -3.9793  -3.8347  -3.8338  -3.8265  -3.8017  -3.8008  -3.8008
    -3.4720  -3.4706  -3.4343  -3.4330  -3.3972  -3.3817  -3.3490  -3.3281
    -3.1387  -3.1224  -3.1223  -3.0679  -3.0205  -2.9882  -2.9880  -2.9647
    -2.1134  -2.1128  -2.1018  -2.0865  -2.0171  -2.0156  -2.0016  -2.0009
    -1.9963  -1.9902  -1.9524  -1.9515  -1.9333  -1.9273  -1.9092  -1.9071
    -0.8606  -0.8519  -0.8233  -0.8022  -0.8017  -0.7591  -0.7458  -0.7455
     4.4880   4.5014   4.5039   4.5580   4.6020   4.6043   4.7018   4.7185
     6.1025   6.6263   7.4284   7.4291   7.4742   7.5202   8.1803   8.2747
     8.4376   8.4384   8.5000   8.7034   8.8024   8.8098   8.9756   8.9764
     9.0799   9.2214   9.2221   9.2426   9.3397   9.3509   9.3529   9.5303
     9.5635   9.5650   9.7466   9.9246   9.9258   9.9380   9.9870  10.0263

     occupation numbers 
     1.0000   1.0000   1.0000   1.0000   1.0000   1.0000   1.0000   1.0000
     1.0000   1.0000   1.0000   1.0000   1.0000   1.0000   1.0000   1.0000
     1.0000   1.0000   1.0000   1.0000   1.0000   1.0000   1.0000   1.0000
     1.0000   1.0000   1.0000   1.0000   1.0000   1.0000   1.0000   1.0000
     1.0000   1.0000   1.0000   1.0000   1.0000   1.0000   1.0000   1.0000
     1.0000   1.0000   1.0000   1.0000   1.0000   1.0000   1.0000   1.0000
     1.0000   1.0000   1.0000   1.0000   1.0000   1.0000   1.0000   1.0000
     1.0000   1.0000   1.0000   1.0000   1.0000   1.0000   1.0000   1.0000
     1.0000   1.0000   1.0000   1.0000   1.0000   1.0000   1.0000   1.0000
     1.0000   1.0000   1.0000   1.0000   1.0000   1.0000   1.0000   1.0000
     1.0000   1.0000   1.0000   1.0000   1.0000   1.0000   1.0000   1.0000
     1.0000   1.0000   1.0000   1.0000   1.0000   1.0000   1.0000   1.0000
     1.0000   1.0000   1.0000   1.0000   1.0000   1.0000   1.0000   1.0000
     1.0000   1.0000   1.0000   1.0000   1.0000   1.0000   1.0000   1.0000
     1.0000   1.0000   1.0000   1.0000   1.0000   1.0000   1.0000   1.0000
     1.0000   1.0000   1.0000   1.0000   1.0000   1.0000   1.0000   1.0000
     1.0000   1.0000   1.0000   1.0000   1.0000   1.0000   1.0000   1.0000
     1.0000   1.0000   1.0000   1.0000   1.0000   1.0000   1.0000   1.0000
     1.0000   1.0000   1.0000   1.0000   1.0000   1.0000   1.0000   1.0000
     1.0000   1.0000   1.0000   1.0000   1.0000   1.0000   1.0000   1.0000
     1.0000   1.0000   1.0000   1.0000   1.0000   1.0000   1.0000   1.0000
     1.0000   1.0000   1.0000   1.0000   1.0000   1.0000   1.0000   1.0000
     1.0000   1.0000   1.0000   1.0000   1.0000   1.0000   1.0000   1.0000
     1.0000   1.0000   1.0000   1.0000   1.0000   1.0000   1.0000   1.0000
     1.0000   1.0000   1.0000   1.0000   1.0000   1.0000   1.0000   1.0000
     0.0000   0.0000   0.0000   0.0000   0.0000   0.0000   0.0000   0.0000
     0.0000   0.0000   0.0000   0.0000   0.0000   0.0000   0.0000   0.0000
     0.0000   0.0000   0.0000   0.0000   0.0000   0.0000   0.0000   0.0000
     0.0000   0.0000   0.0000   0.0000   0.0000   0.0000   0.0000   0.0000
     0.0000   0.0000   0.0000   0.0000   0.0000   0.0000   0.0000   0.0000

          k = 0.0000 0.3333-0.1917 ( 39629 PWs)   bands (ev):

   -27.6077 -27.5966 -27.5938 -27.5899 -27.5683 -27.5572 -27.5547 -27.5524
   -25.0741 -25.0734 -25.0677 -25.0600 -25.0516 -25.0477 -25.0418 -25.0382
   -24.8247 -24.8131 -24.8016 -24.7983 -24.7953 -24.7827 -24.7779 -24.7712
   -22.5355 -22.5068 -22.4391 -22.4329 -22.4114 -22.4089 -22.3905 -22.3804
   -22.2443 -22.2162 -22.1750 -22.1707 -22.1438 -22.1403 -22.0871 -22.0590
   -20.0553 -20.0472 -20.0440 -20.0381 -20.0358 -20.0307 -20.0272 -20.0179
   -12.4921 -12.4531 -12.4454 -12.4391 -12.4308 -12.3944 -12.3868 -12.3621
   -10.3094 -10.3037 -10.2451 -10.2349 -10.2059 -10.1690 -10.1526 -10.1014
    -8.8978  -8.8940  -8.8648  -8.8595  -8.8345  -8.8157  -8.8093  -8.7941
    -8.7711  -8.7573  -8.7304  -8.7259  -8.7215  -8.7053  -8.6800  -8.6633
    -8.6516  -8.6454  -8.6440  -8.6266  -8.6124  -8.6011  -8.5794  -8.5568
    -8.1971  -8.1346  -8.1016  -8.0516  -8.0010  -7.9702  -7.9419  -7.9043
    -6.2265  -6.2130  -6.2001  -6.1333  -6.1317  -6.1182  -6.0806  -6.0523
    -5.7038  -5.6902  -5.6541  -5.6286  -5.4840  -5.4624  -5.4531  -5.4210
    -5.3922  -5.3282  -5.2990  -5.2790  -5.2541  -5.2316  -5.2138  -5.2053
    -5.1807  -5.1447  -5.0873  -5.0784  -5.0639  -5.0317  -5.0066  -4.9724
    -4.9543  -4.9196  -4.8914  -4.8597  -4.8472  -4.8408  -4.8390  -4.8023
    -4.5622  -4.5364  -4.5214  -4.4690  -4.3654  -4.3391  -4.3166  -4.2500
    -4.1955  -4.1551  -4.1455  -4.1288  -4.1222  -4.1105  -4.0754  -4.0589
    -4.0008  -3.9499  -3.8922  -3.8821  -3.8342  -3.7971  -3.7731  -3.7598
    -3.4725  -3.4709  -3.4605  -3.4350  -3.3809  -3.3626  -3.3541  -3.3305
    -3.1418  -3.1213  -3.1106  -3.0928  -3.0024  -2.9917  -2.9813  -2.9712
    -2.1243  -2.1152  -2.0903  -2.0623  -2.0315  -2.0196  -2.0129  -2.0031
    -1.9949  -1.9915  -1.9584  -1.9458  -1.9294  -1.9248  -1.9175  -1.9041
    -0.8921  -0.8580  -0.8186  -0.8064  -0.7834  -0.7558  -0.7465  -0.7351
     4.4561   4.5143   4.5301   4.5664   4.5955   4.6440   4.6776   4.6953
     6.1551   6.8341   7.2196   7.3458   7.6316   7.7504   7.9740   8.0270
     8.1689   8.2871   8.4029   8.4545   8.7936   8.8387   8.9623   9.0471
     9.0701   9.1833   9.3221   9.3509   9.4045   9.4768   9.5614   9.6101
     9.6778   9.7820   9.8089   9.8662   9.9546  10.0487  10.0754  10.2741

     occupation numbers 
     1.0000   1.0000   1.0000   1.0000   1.0000   1.0000   1.0000   1.0000
     1.0000   1.0000   1.0000   1.0000   1.0000   1.0000   1.0000   1.0000
     1.0000   1.0000   1.0000   1.0000   1.0000   1.0000   1.0000   1.0000
     1.0000   1.0000   1.0000   1.0000   1.0000   1.0000   1.0000   1.0000
     1.0000   1.0000   1.0000   1.0000   1.0000   1.0000   1.0000   1.0000
     1.0000   1.0000   1.0000   1.0000   1.0000   1.0000   1.0000   1.0000
     1.0000   1.0000   1.0000   1.0000   1.0000   1.0000   1.0000   1.0000
     1.0000   1.0000   1.0000   1.0000   1.0000   1.0000   1.0000   1.0000
     1.0000   1.0000   1.0000   1.0000   1.0000   1.0000   1.0000   1.0000
     1.0000   1.0000   1.0000   1.0000   1.0000   1.0000   1.0000   1.0000
     1.0000   1.0000   1.0000   1.0000   1.0000   1.0000   1.0000   1.0000
     1.0000   1.0000   1.0000   1.0000   1.0000   1.0000   1.0000   1.0000
     1.0000   1.0000   1.0000   1.0000   1.0000   1.0000   1.0000   1.0000
     1.0000   1.0000   1.0000   1.0000   1.0000   1.0000   1.0000   1.0000
     1.0000   1.0000   1.0000   1.0000   1.0000   1.0000   1.0000   1.0000
     1.0000   1.0000   1.0000   1.0000   1.0000   1.0000   1.0000   1.0000
     1.0000   1.0000   1.0000   1.0000   1.0000   1.0000   1.0000   1.0000
     1.0000   1.0000   1.0000   1.0000   1.0000   1.0000   1.0000   1.0000
     1.0000   1.0000   1.0000   1.0000   1.0000   1.0000   1.0000   1.0000
     1.0000   1.0000   1.0000   1.0000   1.0000   1.0000   1.0000   1.0000
     1.0000   1.0000   1.0000   1.0000   1.0000   1.0000   1.0000   1.0000
     1.0000   1.0000   1.0000   1.0000   1.0000   1.0000   1.0000   1.0000
     1.0000   1.0000   1.0000   1.0000   1.0000   1.0000   1.0000   1.0000
     1.0000   1.0000   1.0000   1.0000   1.0000   1.0000   1.0000   1.0000
     1.0000   1.0000   1.0000   1.0000   1.0000   1.0000   1.0000   1.0000
     0.0000   0.0000   0.0000   0.0000   0.0000   0.0000   0.0000   0.0000
     0.0000   0.0000   0.0000   0.0000   0.0000   0.0000   0.0000   0.0000
     0.0000   0.0000   0.0000   0.0000   0.0000   0.0000   0.0000   0.0000
     0.0000   0.0000   0.0000   0.0000   0.0000   0.0000   0.0000   0.0000
     0.0000   0.0000   0.0000   0.0000   0.0000   0.0000   0.0000   0.0000

          k = 0.0000 0.3333-0.5751 ( 39604 PWs)   bands (ev):

   -27.6040 -27.6017 -27.5937 -27.5899 -27.5647 -27.5603 -27.5540 -27.5524
   -25.0741 -25.0735 -25.0673 -25.0604 -25.0515 -25.0477 -25.0418 -25.0382
   -24.8212 -24.8182 -24.8019 -24.7983 -24.7931 -24.7827 -24.7769 -24.7724
   -22.5275 -22.5169 -22.4343 -22.4221 -22.4212 -22.4157 -22.3861 -22.3846
   -22.2352 -22.2255 -22.1643 -22.1611 -22.1531 -22.1492 -22.0779 -22.0672
   -20.0501 -20.0494 -20.0458 -20.0359 -20.0352 -20.0328 -20.0280 -20.0189
   -12.4762 -12.4588 -12.4459 -12.4386 -12.4255 -12.4038 -12.3861 -12.3713
   -10.2857 -10.2715 -10.2426 -10.2363 -10.2029 -10.1829 -10.1698 -10.1301
    -8.8918  -8.8840  -8.8724  -8.8709  -8.8218  -8.8139  -8.8120  -8.8002
    -8.7729  -8.7644  -8.7282  -8.7242  -8.7151  -8.7117  -8.6814  -8.6635
    -8.6583  -8.6488  -8.6391  -8.6363  -8.6137  -8.6062  -8.5800  -8.5612
    -8.1462  -8.1110  -8.0750  -8.0388  -8.0093  -8.0010  -7.9534  -7.9344
    -6.2245  -6.2118  -6.1714  -6.1637  -6.1458  -6.0988  -6.0881  -6.0625
    -5.6986  -5.6702  -5.6592  -5.6485  -5.4659  -5.4526  -5.4473  -5.4299
    -5.3604  -5.3415  -5.3320  -5.2928  -5.2532  -5.2363  -5.2331  -5.1901
    -5.1715  -5.1526  -5.1101  -5.0607  -5.0314  -5.0144  -5.0081  -4.9570
    -4.9514  -4.9190  -4.9003  -4.8991  -4.8597  -4.8437  -4.8373  -4.7930
    -4.5828  -4.5141  -4.5123  -4.4605  -4.3397  -4.3230  -4.3018  -4.2913
    -4.1869  -4.1657  -4.1508  -4.1281  -4.1227  -4.1165  -4.0748  -4.0632
    -3.9888  -3.9768  -3.8894  -3.8758  -3.8337  -3.8009  -3.7744  -3.7616
    -3.4751  -3.4724  -3.4578  -3.4336  -3.3839  -3.3621  -3.3437  -3.3385
    -3.1316  -3.1230  -3.1080  -3.1046  -2.9947  -2.9909  -2.9854  -2.9750
    -2.1291  -2.1111  -2.0874  -2.0589  -2.0296  -2.0143  -2.0065  -2.0053
    -1.9799  -1.9749  -1.9721  -1.9630  -1.9369  -1.9329  -1.9132  -1.9052
    -0.8849  -0.8613  -0.8072  -0.7931  -0.7829  -0.7723  -0.7541  -0.7378
     4.4711   4.5292   4.5302   4.5584   4.5739   4.6220   4.6863   4.7071
     6.4346   6.5073   6.7824   7.4772   7.5998   8.0174   8.1356   8.1808
     8.2338   8.3885   8.3996   8.5936   8.7681   8.9041   9.0159   9.0606
     9.0787   9.1112   9.2387   9.2519   9.3743   9.4289   9.4903   9.5887
     9.6265   9.7640   9.7707   9.8123   9.9319   9.9946  10.1266  10.1724

     occupation numbers 
     1.0000   1.0000   1.0000   1.0000   1.0000   1.0000   1.0000   1.0000
     1.0000   1.0000   1.0000   1.0000   1.0000   1.0000   1.0000   1.0000
     1.0000   1.0000   1.0000   1.0000   1.0000   1.0000   1.0000   1.0000
     1.0000   1.0000   1.0000   1.0000   1.0000   1.0000   1.0000   1.0000
     1.0000   1.0000   1.0000   1.0000   1.0000   1.0000   1.0000   1.0000
     1.0000   1.0000   1.0000   1.0000   1.0000   1.0000   1.0000   1.0000
     1.0000   1.0000   1.0000   1.0000   1.0000   1.0000   1.0000   1.0000
     1.0000   1.0000   1.0000   1.0000   1.0000   1.0000   1.0000   1.0000
     1.0000   1.0000   1.0000   1.0000   1.0000   1.0000   1.0000   1.0000
     1.0000   1.0000   1.0000   1.0000   1.0000   1.0000   1.0000   1.0000
     1.0000   1.0000   1.0000   1.0000   1.0000   1.0000   1.0000   1.0000
     1.0000   1.0000   1.0000   1.0000   1.0000   1.0000   1.0000   1.0000
     1.0000   1.0000   1.0000   1.0000   1.0000   1.0000   1.0000   1.0000
     1.0000   1.0000   1.0000   1.0000   1.0000   1.0000   1.0000   1.0000
     1.0000   1.0000   1.0000   1.0000   1.0000   1.0000   1.0000   1.0000
     1.0000   1.0000   1.0000   1.0000   1.0000   1.0000   1.0000   1.0000
     1.0000   1.0000   1.0000   1.0000   1.0000   1.0000   1.0000   1.0000
     1.0000   1.0000   1.0000   1.0000   1.0000   1.0000   1.0000   1.0000
     1.0000   1.0000   1.0000   1.0000   1.0000   1.0000   1.0000   1.0000
     1.0000   1.0000   1.0000   1.0000   1.0000   1.0000   1.0000   1.0000
     1.0000   1.0000   1.0000   1.0000   1.0000   1.0000   1.0000   1.0000
     1.0000   1.0000   1.0000   1.0000   1.0000   1.0000   1.0000   1.0000
     1.0000   1.0000   1.0000   1.0000   1.0000   1.0000   1.0000   1.0000
     1.0000   1.0000   1.0000   1.0000   1.0000   1.0000   1.0000   1.0000
     1.0000   1.0000   1.0000   1.0000   1.0000   1.0000   1.0000   1.0000
     0.0000   0.0000   0.0000   0.0000   0.0000   0.0000   0.0000   0.0000
     0.0000   0.0000   0.0000   0.0000   0.0000   0.0000   0.0000   0.0000
     0.0000   0.0000   0.0000   0.0000   0.0000   0.0000   0.0000   0.0000
     0.0000   0.0000   0.0000   0.0000   0.0000   0.0000   0.0000   0.0000
     0.0000   0.0000   0.0000   0.0000   0.0000   0.0000   0.0000   0.0000

          k = 0.3333 0.3333-0.3834 ( 39645 PWs)   bands (ev):

   -27.6040 -27.5992 -27.5939 -27.5927 -27.5646 -27.5602 -27.5536 -27.5525
   -25.0737 -25.0720 -25.0675 -25.0651 -25.0477 -25.0463 -25.0418 -25.0404
   -24.8202 -24.8150 -24.8019 -24.8002 -24.7942 -24.7905 -24.7724 -24.7704
   -22.5270 -22.5163 -22.4312 -22.4283 -22.4205 -22.4165 -22.3867 -22.3807
   -22.2376 -22.2259 -22.1634 -22.1627 -22.1510 -22.1504 -22.0772 -22.0666
   -20.0519 -20.0478 -20.0457 -20.0382 -20.0337 -20.0316 -20.0266 -20.0207
   -12.4809 -12.4659 -12.4411 -12.4342 -12.4246 -12.4105 -12.3774 -12.3701
   -10.2954 -10.2704 -10.2617 -10.2411 -10.1990 -10.1964 -10.1417 -10.1155
    -8.8926  -8.8887  -8.8783  -8.8768  -8.8190  -8.8054  -8.8032  -8.7915
    -8.7606  -8.7549  -8.7357  -8.7287  -8.7059  -8.7001  -8.6989  -8.6848
    -8.6616  -8.6500  -8.6381  -8.6378  -8.6197  -8.6131  -8.5588  -8.5519
    -8.1735  -8.1319  -8.0667  -8.0454  -8.0146  -7.9894  -7.9447  -7.9244
    -6.2112  -6.2069  -6.1788  -6.1596  -6.1286  -6.1265  -6.0954  -6.0786
    -5.6925  -5.6763  -5.6687  -5.6503  -5.4712  -5.4689  -5.4158  -5.4040
    -5.3658  -5.3276  -5.3169  -5.2725  -5.2524  -5.2500  -5.2125  -5.2102
    -5.1774  -5.1721  -5.0856  -5.0811  -5.0463  -5.0443  -4.9844  -4.9631
    -4.9271  -4.9162  -4.8899  -4.8892  -4.8637  -4.8493  -4.8271  -4.8010
    -4.5717  -4.5501  -4.5072  -4.4472  -4.3827  -4.3423  -4.2990  -4.2500
    -4.1895  -4.1774  -4.1325  -4.1312  -4.1207  -4.1191  -4.0629  -4.0569
    -3.9786  -3.9517  -3.8921  -3.8911  -3.8720  -3.8509  -3.7396  -3.7364
    -3.4800  -3.4762  -3.4537  -3.4449  -3.3639  -3.3601  -3.3501  -3.3395
    -3.1425  -3.1329  -3.1054  -3.0809  -3.0111  -2.9943  -2.9797  -2.9689
    -2.1248  -2.1242  -2.0638  -2.0470  -2.0273  -2.0218  -2.0090  -2.0081
    -1.9906  -1.9812  -1.9661  -1.9641  -1.9374  -1.9332  -1.9150  -1.9111
    -0.8814  -0.8792  -0.8226  -0.8077  -0.7659  -0.7591  -0.7453  -0.7370
     4.4695   4.4971   4.5676   4.5768   4.6093   4.6127   4.6701   4.6760
     6.4377   6.7634   6.9349   7.1104   7.5101   7.8543   7.9501   7.9861
     8.2986   8.4081   8.5308   8.7430   8.7524   8.9036   9.0157   9.0218
     9.1326   9.1694   9.2552   9.3064   9.3620   9.5389   9.5533   9.6406
     9.6420   9.7579   9.8052   9.8892  10.0241  10.0299  10.0926  10.1466

     occupation numbers 
     1.0000   1.0000   1.0000   1.0000   1.0000   1.0000   1.0000   1.0000
     1.0000   1.0000   1.0000   1.0000   1.0000   1.0000   1.0000   1.0000
     1.0000   1.0000   1.0000   1.0000   1.0000   1.0000   1.0000   1.0000
     1.0000   1.0000   1.0000   1.0000   1.0000   1.0000   1.0000   1.0000
     1.0000   1.0000   1.0000   1.0000   1.0000   1.0000   1.0000   1.0000
     1.0000   1.0000   1.0000   1.0000   1.0000   1.0000   1.0000   1.0000
     1.0000   1.0000   1.0000   1.0000   1.0000   1.0000   1.0000   1.0000
     1.0000   1.0000   1.0000   1.0000   1.0000   1.0000   1.0000   1.0000
     1.0000   1.0000   1.0000   1.0000   1.0000   1.0000   1.0000   1.0000
     1.0000   1.0000   1.0000   1.0000   1.0000   1.0000   1.0000   1.0000
     1.0000   1.0000   1.0000   1.0000   1.0000   1.0000   1.0000   1.0000
     1.0000   1.0000   1.0000   1.0000   1.0000   1.0000   1.0000   1.0000
     1.0000   1.0000   1.0000   1.0000   1.0000   1.0000   1.0000   1.0000
     1.0000   1.0000   1.0000   1.0000   1.0000   1.0000   1.0000   1.0000
     1.0000   1.0000   1.0000   1.0000   1.0000   1.0000   1.0000   1.0000
     1.0000   1.0000   1.0000   1.0000   1.0000   1.0000   1.0000   1.0000
     1.0000   1.0000   1.0000   1.0000   1.0000   1.0000   1.0000   1.0000
     1.0000   1.0000   1.0000   1.0000   1.0000   1.0000   1.0000   1.0000
     1.0000   1.0000   1.0000   1.0000   1.0000   1.0000   1.0000   1.0000
     1.0000   1.0000   1.0000   1.0000   1.0000   1.0000   1.0000   1.0000
     1.0000   1.0000   1.0000   1.0000   1.0000   1.0000   1.0000   1.0000
     1.0000   1.0000   1.0000   1.0000   1.0000   1.0000   1.0000   1.0000
     1.0000   1.0000   1.0000   1.0000   1.0000   1.0000   1.0000   1.0000
     1.0000   1.0000   1.0000   1.0000   1.0000   1.0000   1.0000   1.0000
     1.0000   1.0000   1.0000   1.0000   1.0000   1.0000   1.0000   1.0000
     0.0000   0.0000   0.0000   0.0000   0.0000   0.0000   0.0000   0.0000
     0.0000   0.0000   0.0000   0.0000   0.0000   0.0000   0.0000   0.0000
     0.0000   0.0000   0.0000   0.0000   0.0000   0.0000   0.0000   0.0000
     0.0000   0.0000   0.0000   0.0000   0.0000   0.0000   0.0000   0.0000
     0.0000   0.0000   0.0000   0.0000   0.0000   0.0000   0.0000   0.0000

          k = 0.3333 0.3333 0.0000 ( 39666 PWs)   bands (ev):

   -27.6060 -27.5960 -27.5943 -27.5929 -27.5670 -27.5579 -27.5544 -27.5523
   -25.0738 -25.0714 -25.0688 -25.0643 -25.0477 -25.0463 -25.0418 -25.0404
   -24.8223 -24.8116 -24.8017 -24.7994 -24.7977 -24.7894 -24.7729 -24.7697
   -22.5320 -22.5104 -22.4336 -22.4329 -22.4176 -22.4124 -22.3851 -22.3822
   -22.2410 -22.2225 -22.1693 -22.1669 -22.1469 -22.1454 -22.0821 -22.0618
   -20.0533 -20.0467 -20.0451 -20.0388 -20.0349 -20.0332 -20.0249 -20.0193
   -12.4873 -12.4596 -12.4443 -12.4342 -12.4331 -12.4045 -12.3797 -12.3606
   -10.3105 -10.2849 -10.2731 -10.2238 -10.1965 -10.1937 -10.1335 -10.1056
    -8.9005  -8.8896  -8.8723  -8.8714  -8.8256  -8.8114  -8.7985  -8.7918
    -8.7552  -8.7494  -8.7370  -8.7215  -8.7167  -8.7027  -8.6993  -8.6751
    -8.6674  -8.6417  -8.6380  -8.6345  -8.6285  -8.6045  -8.5582  -8.5505
    -8.1845  -8.1545  -8.0828  -8.0553  -8.0057  -7.9823  -7.9347  -7.9069
    -6.2109  -6.2103  -6.1936  -6.1406  -6.1310  -6.1240  -6.0931  -6.0774
    -5.6963  -5.6847  -5.6661  -5.6445  -5.4693  -5.4629  -5.4123  -5.4083
    -5.3998  -5.3172  -5.2977  -5.2734  -5.2568  -5.2535  -5.2283  -5.1933
    -5.1785  -5.1395  -5.0756  -5.0671  -5.0500  -5.0374  -4.9991  -4.9840
    -4.9587  -4.9495  -4.9185  -4.8758  -4.8563  -4.8506  -4.8198  -4.7580
    -4.6134  -4.5326  -4.4723  -4.4143  -4.3588  -4.3511  -4.3075  -4.2965
    -4.2015  -4.1761  -4.1351  -4.1263  -4.1246  -4.1137  -4.0637  -4.0548
    -3.9841  -3.9286  -3.8954  -3.8931  -3.8878  -3.8424  -3.7395  -3.7356
    -3.4810  -3.4719  -3.4609  -3.4415  -3.3636  -3.3623  -3.3502  -3.3364
    -3.1290  -3.1192  -3.1116  -3.1090  -2.9967  -2.9952  -2.9818  -2.9688
    -2.1261  -2.1211  -2.0696  -2.0549  -2.0308  -2.0228  -2.0142  -1.9969
    -1.9942  -1.9893  -1.9608  -1.9570  -1.9323  -1.9300  -1.9181  -1.9104
    -0.9049  -0.8728  -0.7975  -0.7949  -0.7882  -0.7612  -0.7445  -0.7352
     4.4572   4.5078   4.5566   4.5672   4.6280   4.6475   4.6547   4.6607
     6.2879   6.9981   7.1926   7.2706   7.2891   7.5099   7.8150   8.0116
     8.3642   8.5413   8.5644   8.6034   8.6735   8.8237   8.9488   9.0198
     9.0474   9.1527   9.2538   9.3374   9.5039   9.5563   9.6060   9.6924
     9.7642   9.7825   9.8212   9.9738   9.9842  10.1014  10.1423  10.1816

     occupation numbers 
     1.0000   1.0000   1.0000   1.0000   1.0000   1.0000   1.0000   1.0000
     1.0000   1.0000   1.0000   1.0000   1.0000   1.0000   1.0000   1.0000
     1.0000   1.0000   1.0000   1.0000   1.0000   1.0000   1.0000   1.0000
     1.0000   1.0000   1.0000   1.0000   1.0000   1.0000   1.0000   1.0000
     1.0000   1.0000   1.0000   1.0000   1.0000   1.0000   1.0000   1.0000
     1.0000   1.0000   1.0000   1.0000   1.0000   1.0000   1.0000   1.0000
     1.0000   1.0000   1.0000   1.0000   1.0000   1.0000   1.0000   1.0000
     1.0000   1.0000   1.0000   1.0000   1.0000   1.0000   1.0000   1.0000
     1.0000   1.0000   1.0000   1.0000   1.0000   1.0000   1.0000   1.0000
     1.0000   1.0000   1.0000   1.0000   1.0000   1.0000   1.0000   1.0000
     1.0000   1.0000   1.0000   1.0000   1.0000   1.0000   1.0000   1.0000
     1.0000   1.0000   1.0000   1.0000   1.0000   1.0000   1.0000   1.0000
     1.0000   1.0000   1.0000   1.0000   1.0000   1.0000   1.0000   1.0000
     1.0000   1.0000   1.0000   1.0000   1.0000   1.0000   1.0000   1.0000
     1.0000   1.0000   1.0000   1.0000   1.0000   1.0000   1.0000   1.0000
     1.0000   1.0000   1.0000   1.0000   1.0000   1.0000   1.0000   1.0000
     1.0000   1.0000   1.0000   1.0000   1.0000   1.0000   1.0000   1.0000
     1.0000   1.0000   1.0000   1.0000   1.0000   1.0000   1.0000   1.0000
     1.0000   1.0000   1.0000   1.0000   1.0000   1.0000   1.0000   1.0000
     1.0000   1.0000   1.0000   1.0000   1.0000   1.0000   1.0000   1.0000
     1.0000   1.0000   1.0000   1.0000   1.0000   1.0000   1.0000   1.0000
     1.0000   1.0000   1.0000   1.0000   1.0000   1.0000   1.0000   1.0000
     1.0000   1.0000   1.0000   1.0000   1.0000   1.0000   1.0000   1.0000
     1.0000   1.0000   1.0000   1.0000   1.0000   1.0000   1.0000   1.0000
     1.0000   1.0000   1.0000   1.0000   1.0000   1.0000   1.0000   1.0000
     0.0000   0.0000   0.0000   0.0000   0.0000   0.0000   0.0000   0.0000
     0.0000   0.0000   0.0000   0.0000   0.0000   0.0000   0.0000   0.0000
     0.0000   0.0000   0.0000   0.0000   0.0000   0.0000   0.0000   0.0000
     0.0000   0.0000   0.0000   0.0000   0.0000   0.0000   0.0000   0.0000
     0.0000   0.0000   0.0000   0.0000   0.0000   0.0000   0.0000   0.0000

          k = 0.3333 0.0000 0.1917 ( 39629 PWs)   bands (ev):

   -27.6081 -27.5957 -27.5929 -27.5914 -27.5687 -27.5564 -27.5538 -27.5537
   -25.0756 -25.0719 -25.0666 -25.0612 -25.0529 -25.0463 -25.0406 -25.0395
   -24.8249 -24.8130 -24.8000 -24.7999 -24.7945 -24.7842 -24.7771 -24.7711
   -22.5355 -22.5068 -22.4393 -22.4328 -22.4114 -22.4087 -22.3907 -22.3803
   -22.2443 -22.2163 -22.1750 -22.1706 -22.1439 -22.1404 -22.0871 -22.0590
   -20.0562 -20.0468 -20.0429 -20.0388 -20.0349 -20.0323 -20.0247 -20.0194
   -12.4922 -12.4516 -12.4465 -12.4396 -12.4306 -12.3928 -12.3884 -12.3620
   -10.3095 -10.3038 -10.2447 -10.2351 -10.2060 -10.1689 -10.1529 -10.1013
    -8.8981  -8.8940  -8.8642  -8.8595  -8.8347  -8.8157  -8.8095  -8.7940
    -8.7715  -8.7573  -8.7311  -8.7251  -8.7209  -8.7052  -8.6799  -8.6635
    -8.6516  -8.6454  -8.6441  -8.6264  -8.6126  -8.6013  -8.5793  -8.5567
    -8.1970  -8.1346  -8.1016  -8.0516  -8.0011  -7.9702  -7.9419  -7.9044
    -6.2272  -6.2127  -6.1998  -6.1329  -6.1310  -6.1176  -6.0816  -6.0530
    -5.7044  -5.6902  -5.6533  -5.6290  -5.4833  -5.4626  -5.4532  -5.4215
    -5.3921  -5.3282  -5.2987  -5.2789  -5.2542  -5.2319  -5.2138  -5.2052
    -5.1809  -5.1447  -5.0874  -5.0786  -5.0641  -5.0314  -5.0065  -4.9724
    -4.9539  -4.9197  -4.8914  -4.8595  -4.8472  -4.8409  -4.8390  -4.8022
    -4.5622  -4.5363  -4.5214  -4.4691  -4.3654  -4.3390  -4.3166  -4.2500
    -4.1954  -4.1550  -4.1457  -4.1294  -4.1215  -4.1105  -4.0754  -4.0588
    -4.0011  -3.9502  -3.8911  -3.8817  -3.8352  -3.7980  -3.7725  -3.7595
    -3.4723  -3.4711  -3.4594  -3.4362  -3.3821  -3.3613  -3.3539  -3.3307
    -3.1418  -3.1213  -3.1105  -3.0929  -3.0023  -2.9917  -2.9814  -2.9712
    -2.1244  -2.1154  -2.0900  -2.0624  -2.0320  -2.0198  -2.0128  -2.0037
    -1.9939  -1.9912  -1.9574  -1.9460  -1.9300  -1.9249  -1.9169  -1.9048
    -0.8921  -0.8580  -0.8187  -0.8066  -0.7836  -0.7555  -0.7467  -0.7348
     4.4571   4.5126   4.5317   4.5661   4.5943   4.6439   4.6760   4.6976
     6.1551   6.8342   7.2195   7.3455   7.6320   7.7501   7.9740   8.0275
     8.1689   8.2874   8.4032   8.4541   8.7932   8.8370   8.9629   9.0472
     9.0693   9.1832   9.3236   9.3517   9.4041   9.4768   9.5617   9.6104
     9.6780   9.7821   9.8094   9.8666   9.9540  10.0487  10.0752  10.2765

     occupation numbers 
     1.0000   1.0000   1.0000   1.0000   1.0000   1.0000   1.0000   1.0000
     1.0000   1.0000   1.0000   1.0000   1.0000   1.0000   1.0000   1.0000
     1.0000   1.0000   1.0000   1.0000   1.0000   1.0000   1.0000   1.0000
     1.0000   1.0000   1.0000   1.0000   1.0000   1.0000   1.0000   1.0000
     1.0000   1.0000   1.0000   1.0000   1.0000   1.0000   1.0000   1.0000
     1.0000   1.0000   1.0000   1.0000   1.0000   1.0000   1.0000   1.0000
     1.0000   1.0000   1.0000   1.0000   1.0000   1.0000   1.0000   1.0000
     1.0000   1.0000   1.0000   1.0000   1.0000   1.0000   1.0000   1.0000
     1.0000   1.0000   1.0000   1.0000   1.0000   1.0000   1.0000   1.0000
     1.0000   1.0000   1.0000   1.0000   1.0000   1.0000   1.0000   1.0000
     1.0000   1.0000   1.0000   1.0000   1.0000   1.0000   1.0000   1.0000
     1.0000   1.0000   1.0000   1.0000   1.0000   1.0000   1.0000   1.0000
     1.0000   1.0000   1.0000   1.0000   1.0000   1.0000   1.0000   1.0000
     1.0000   1.0000   1.0000   1.0000   1.0000   1.0000   1.0000   1.0000
     1.0000   1.0000   1.0000   1.0000   1.0000   1.0000   1.0000   1.0000
     1.0000   1.0000   1.0000   1.0000   1.0000   1.0000   1.0000   1.0000
     1.0000   1.0000   1.0000   1.0000   1.0000   1.0000   1.0000   1.0000
     1.0000   1.0000   1.0000   1.0000   1.0000   1.0000   1.0000   1.0000
     1.0000   1.0000   1.0000   1.0000   1.0000   1.0000   1.0000   1.0000
     1.0000   1.0000   1.0000   1.0000   1.0000   1.0000   1.0000   1.0000
     1.0000   1.0000   1.0000   1.0000   1.0000   1.0000   1.0000   1.0000
     1.0000   1.0000   1.0000   1.0000   1.0000   1.0000   1.0000   1.0000
     1.0000   1.0000   1.0000   1.0000   1.0000   1.0000   1.0000   1.0000
     1.0000   1.0000   1.0000   1.0000   1.0000   1.0000   1.0000   1.0000
     1.0000   1.0000   1.0000   1.0000   1.0000   1.0000   1.0000   1.0000
     0.0000   0.0000   0.0000   0.0000   0.0000   0.0000   0.0000   0.0000
     0.0000   0.0000   0.0000   0.0000   0.0000   0.0000   0.0000   0.0000
     0.0000   0.0000   0.0000   0.0000   0.0000   0.0000   0.0000   0.0000
     0.0000   0.0000   0.0000   0.0000   0.0000   0.0000   0.0000   0.0000
     0.0000   0.0000   0.0000   0.0000   0.0000   0.0000   0.0000   0.0000

          k = 0.3333 0.0000 0.5751 ( 39604 PWs)   bands (ev):

   -27.6051 -27.6002 -27.5925 -27.5914 -27.5656 -27.5589 -27.5538 -27.5530
   -25.0756 -25.0720 -25.0659 -25.0618 -25.0529 -25.0463 -25.0404 -25.0396
   -24.8218 -24.8176 -24.8003 -24.8000 -24.7922 -24.7842 -24.7762 -24.7723
   -22.5277 -22.5167 -22.4346 -22.4221 -22.4208 -22.4159 -22.3863 -22.3844
   -22.2351 -22.2256 -22.1642 -22.1609 -22.1533 -22.1492 -22.0779 -22.0672
   -20.0532 -20.0472 -20.0428 -20.0397 -20.0356 -20.0303 -20.0268 -20.0204
   -12.4767 -12.4570 -12.4475 -12.4381 -12.4260 -12.4021 -12.3877 -12.3708
   -10.2857 -10.2718 -10.2419 -10.2366 -10.2025 -10.1831 -10.1704 -10.1298
    -8.8921  -8.8842  -8.8718  -8.8706  -8.8226  -8.8138  -8.8117  -8.8004
    -8.7731  -8.7644  -8.7291  -8.7233  -8.7140  -8.7122  -8.6807  -8.6642
    -8.6588  -8.6491  -8.6390  -8.6356  -8.6138  -8.6065  -8.5800  -8.5612
    -8.1463  -8.1109  -8.0750  -8.0387  -8.0095  -8.0009  -7.9535  -7.9343
    -6.2253  -6.2114  -6.1718  -6.1628  -6.1449  -6.0976  -6.0894  -6.0634
    -5.6995  -5.6692  -5.6582  -5.6499  -5.4650  -5.4524  -5.4479  -5.4299
    -5.3607  -5.3416  -5.3316  -5.2929  -5.2527  -5.2364  -5.2336  -5.1900
    -5.1716  -5.1524  -5.1106  -5.0604  -5.0314  -5.0150  -5.0079  -4.9565
    -4.9512  -4.9194  -4.8998  -4.8992  -4.8598  -4.8440  -4.8371  -4.7930
    -4.5828  -4.5140  -4.5124  -4.4605  -4.3397  -4.3231  -4.3018  -4.2914
    -4.1868  -4.1659  -4.1508  -4.1285  -4.1227  -4.1161  -4.0748  -4.0631
    -3.9893  -3.9766  -3.8884  -3.8754  -3.8347  -3.8018  -3.7738  -3.7613
    -3.4739  -3.4737  -3.4566  -3.4349  -3.3849  -3.3609  -3.3427  -3.3395
    -3.1316  -3.1229  -3.1078  -3.1048  -2.9946  -2.9910  -2.9854  -2.9751
    -2.1291  -2.1115  -2.0870  -2.0589  -2.0305  -2.0134  -2.0073  -2.0051
    -1.9796  -1.9742  -1.9719  -1.9629  -1.9354  -1.9343  -1.9137  -1.9054
    -0.8848  -0.8613  -0.8074  -0.7932  -0.7828  -0.7723  -0.7544  -0.7374
     4.4726   4.5279   4.5296   4.5599   4.5720   4.6228   4.6841   4.7094
     6.4342   6.5079   6.7821   7.4777   7.5996   8.0170   8.1358   8.1797
     8.2348   8.3886   8.3999   8.5937   8.7689   8.9030   9.0157   9.0603
     9.0779   9.1109   9.2384   9.2520   9.3757   9.4301   9.4897   9.5887
     9.6266   9.7636   9.7708   9.8131   9.9315   9.9948  10.1258  10.1709

     occupation numbers 
     1.0000   1.0000   1.0000   1.0000   1.0000   1.0000   1.0000   1.0000
     1.0000   1.0000   1.0000   1.0000   1.0000   1.0000   1.0000   1.0000
     1.0000   1.0000   1.0000   1.0000   1.0000   1.0000   1.0000   1.0000
     1.0000   1.0000   1.0000   1.0000   1.0000   1.0000   1.0000   1.0000
     1.0000   1.0000   1.0000   1.0000   1.0000   1.0000   1.0000   1.0000
     1.0000   1.0000   1.0000   1.0000   1.0000   1.0000   1.0000   1.0000
     1.0000   1.0000   1.0000   1.0000   1.0000   1.0000   1.0000   1.0000
     1.0000   1.0000   1.0000   1.0000   1.0000   1.0000   1.0000   1.0000
     1.0000   1.0000   1.0000   1.0000   1.0000   1.0000   1.0000   1.0000
     1.0000   1.0000   1.0000   1.0000   1.0000   1.0000   1.0000   1.0000
     1.0000   1.0000   1.0000   1.0000   1.0000   1.0000   1.0000   1.0000
     1.0000   1.0000   1.0000   1.0000   1.0000   1.0000   1.0000   1.0000
     1.0000   1.0000   1.0000   1.0000   1.0000   1.0000   1.0000   1.0000
     1.0000   1.0000   1.0000   1.0000   1.0000   1.0000   1.0000   1.0000
     1.0000   1.0000   1.0000   1.0000   1.0000   1.0000   1.0000   1.0000
     1.0000   1.0000   1.0000   1.0000   1.0000   1.0000   1.0000   1.0000
     1.0000   1.0000   1.0000   1.0000   1.0000   1.0000   1.0000   1.0000
     1.0000   1.0000   1.0000   1.0000   1.0000   1.0000   1.0000   1.0000
     1.0000   1.0000   1.0000   1.0000   1.0000   1.0000   1.0000   1.0000
     1.0000   1.0000   1.0000   1.0000   1.0000   1.0000   1.0000   1.0000
     1.0000   1.0000   1.0000   1.0000   1.0000   1.0000   1.0000   1.0000
     1.0000   1.0000   1.0000   1.0000   1.0000   1.0000   1.0000   1.0000
     1.0000   1.0000   1.0000   1.0000   1.0000   1.0000   1.0000   1.0000
     1.0000   1.0000   1.0000   1.0000   1.0000   1.0000   1.0000   1.0000
     1.0000   1.0000   1.0000   1.0000   1.0000   1.0000   1.0000   1.0000
     0.0000   0.0000   0.0000   0.0000   0.0000   0.0000   0.0000   0.0000
     0.0000   0.0000   0.0000   0.0000   0.0000   0.0000   0.0000   0.0000
     0.0000   0.0000   0.0000   0.0000   0.0000   0.0000   0.0000   0.0000
     0.0000   0.0000   0.0000   0.0000   0.0000   0.0000   0.0000   0.0000
     0.0000   0.0000   0.0000   0.0000   0.0000   0.0000   0.0000   0.0000

          k =-0.3333 0.3333 0.3834 ( 39645 PWs)   bands (ev):

   -27.6040 -27.5992 -27.5939 -27.5927 -27.5646 -27.5602 -27.5536 -27.5525
   -25.0737 -25.0720 -25.0675 -25.0651 -25.0477 -25.0463 -25.0418 -25.0404
   -24.8202 -24.8150 -24.8019 -24.8002 -24.7942 -24.7905 -24.7724 -24.7704
   -22.5270 -22.5163 -22.4309 -22.4287 -22.4201 -22.4168 -22.3867 -22.3807
   -22.2375 -22.2259 -22.1633 -22.1629 -22.1510 -22.1504 -22.0772 -22.0666
   -20.0514 -20.0475 -20.0449 -20.0401 -20.0347 -20.0311 -20.0266 -20.0200
   -12.4810 -12.4660 -12.4411 -12.4339 -12.4245 -12.4104 -12.3774 -12.3704
   -10.2961 -10.2696 -10.2621 -10.2407 -10.1991 -10.1961 -10.1417 -10.1159
    -8.8921  -8.8894  -8.8787  -8.8763  -8.8190  -8.8056  -8.8032  -8.7912
    -8.7605  -8.7548  -8.7362  -8.7291  -8.7056  -8.6996  -8.6989  -8.6848
    -8.6618  -8.6500  -8.6385  -8.6376  -8.6198  -8.6131  -8.5588  -8.5520
    -8.1736  -8.1319  -8.0666  -8.0454  -8.0146  -7.9892  -7.9447  -7.9246
    -6.2108  -6.2070  -6.1792  -6.1595  -6.1289  -6.1267  -6.0953  -6.0783
    -5.6923  -5.6761  -5.6688  -5.6504  -5.4714  -5.4688  -5.4156  -5.4043
    -5.3657  -5.3276  -5.3170  -5.2724  -5.2525  -5.2497  -5.2123  -5.2103
    -5.1772  -5.1722  -5.0857  -5.0813  -5.0463  -5.0442  -4.9844  -4.9631
    -4.9272  -4.9163  -4.8898  -4.8891  -4.8636  -4.8492  -4.8273  -4.8010
    -4.5717  -4.5501  -4.5072  -4.4472  -4.3827  -4.3423  -4.2990  -4.2500
    -4.1896  -4.1774  -4.1322  -4.1311  -4.1208  -4.1192  -4.0629  -4.0569
    -3.9786  -3.9516  -3.8924  -3.8911  -3.8719  -3.8508  -3.7396  -3.7364
    -3.4799  -3.4762  -3.4537  -3.4450  -3.3639  -3.3600  -3.3502  -3.3395
    -3.1425  -3.1329  -3.1054  -3.0809  -3.0111  -2.9943  -2.9798  -2.9690
    -2.1247  -2.1243  -2.0638  -2.0471  -2.0274  -2.0218  -2.0090  -2.0078
    -1.9907  -1.9811  -1.9662  -1.9644  -1.9372  -1.9324  -1.9156  -1.9112
    -0.8815  -0.8793  -0.8226  -0.8077  -0.7658  -0.7591  -0.7454  -0.7370
     4.4698   4.4968   4.5676   4.5776   4.6081   4.6128   4.6702   4.6763
     6.4377   6.7635   6.9349   7.1104   7.5099   7.8543   7.9503   7.9860
     8.2986   8.4078   8.5312   8.7430   8.7524   8.9038   9.0163   9.0216
     9.1328   9.1695   9.2551   9.3067   9.3616   9.5384   9.5529   9.6409
     9.6423   9.7579   9.8053   9.8891  10.0250  10.0305  10.0930  10.1450

     occupation numbers 
     1.0000   1.0000   1.0000   1.0000   1.0000   1.0000   1.0000   1.0000
     1.0000   1.0000   1.0000   1.0000   1.0000   1.0000   1.0000   1.0000
     1.0000   1.0000   1.0000   1.0000   1.0000   1.0000   1.0000   1.0000
     1.0000   1.0000   1.0000   1.0000   1.0000   1.0000   1.0000   1.0000
     1.0000   1.0000   1.0000   1.0000   1.0000   1.0000   1.0000   1.0000
     1.0000   1.0000   1.0000   1.0000   1.0000   1.0000   1.0000   1.0000
     1.0000   1.0000   1.0000   1.0000   1.0000   1.0000   1.0000   1.0000
     1.0000   1.0000   1.0000   1.0000   1.0000   1.0000   1.0000   1.0000
     1.0000   1.0000   1.0000   1.0000   1.0000   1.0000   1.0000   1.0000
     1.0000   1.0000   1.0000   1.0000   1.0000   1.0000   1.0000   1.0000
     1.0000   1.0000   1.0000   1.0000   1.0000   1.0000   1.0000   1.0000
     1.0000   1.0000   1.0000   1.0000   1.0000   1.0000   1.0000   1.0000
     1.0000   1.0000   1.0000   1.0000   1.0000   1.0000   1.0000   1.0000
     1.0000   1.0000   1.0000   1.0000   1.0000   1.0000   1.0000   1.0000
     1.0000   1.0000   1.0000   1.0000   1.0000   1.0000   1.0000   1.0000
     1.0000   1.0000   1.0000   1.0000   1.0000   1.0000   1.0000   1.0000
     1.0000   1.0000   1.0000   1.0000   1.0000   1.0000   1.0000   1.0000
     1.0000   1.0000   1.0000   1.0000   1.0000   1.0000   1.0000   1.0000
     1.0000   1.0000   1.0000   1.0000   1.0000   1.0000   1.0000   1.0000
     1.0000   1.0000   1.0000   1.0000   1.0000   1.0000   1.0000   1.0000
     1.0000   1.0000   1.0000   1.0000   1.0000   1.0000   1.0000   1.0000
     1.0000   1.0000   1.0000   1.0000   1.0000   1.0000   1.0000   1.0000
     1.0000   1.0000   1.0000   1.0000   1.0000   1.0000   1.0000   1.0000
     1.0000   1.0000   1.0000   1.0000   1.0000   1.0000   1.0000   1.0000
     1.0000   1.0000   1.0000   1.0000   1.0000   1.0000   1.0000   1.0000
     0.0000   0.0000   0.0000   0.0000   0.0000   0.0000   0.0000   0.0000
     0.0000   0.0000   0.0000   0.0000   0.0000   0.0000   0.0000   0.0000
     0.0000   0.0000   0.0000   0.0000   0.0000   0.0000   0.0000   0.0000
     0.0000   0.0000   0.0000   0.0000   0.0000   0.0000   0.0000   0.0000
     0.0000   0.0000   0.0000   0.0000   0.0000   0.0000   0.0000   0.0000

          k =-0.3333 0.3333 0.0000 ( 39666 PWs)   bands (ev):

   -27.6060 -27.5960 -27.5943 -27.5929 -27.5670 -27.5578 -27.5544 -27.5523
   -25.0738 -25.0714 -25.0687 -25.0644 -25.0477 -25.0463 -25.0418 -25.0404
   -24.8222 -24.8116 -24.8017 -24.7994 -24.7977 -24.7894 -24.7729 -24.7697
   -22.5320 -22.5104 -22.4339 -22.4325 -22.4179 -22.4119 -22.3852 -22.3822
   -22.2411 -22.2226 -22.1689 -22.1673 -22.1473 -22.1450 -22.0822 -22.0618
   -20.0540 -20.0480 -20.0452 -20.0366 -20.0347 -20.0307 -20.0267 -20.0203
   -12.4871 -12.4590 -12.4448 -12.4345 -12.4333 -12.4050 -12.3792 -12.3605
   -10.3097 -10.2857 -10.2723 -10.2245 -10.1971 -10.1941 -10.1327 -10.1054
    -8.8999  -8.8903  -8.8720  -8.8716  -8.8254  -8.8117  -8.7986  -8.7914
    -8.7553  -8.7493  -8.7375  -8.7221  -8.7162  -8.7029  -8.6987  -8.6754
    -8.6674  -8.6420  -8.6378  -8.6344  -8.6286  -8.6043  -8.5582  -8.5505
    -8.1845  -8.1544  -8.0830  -8.0554  -8.0058  -7.9825  -7.9345  -7.9068
    -6.2113  -6.2107  -6.1931  -6.1400  -6.1308  -6.1236  -6.0936  -6.0777
    -5.6961  -5.6849  -5.6661  -5.6445  -5.4696  -5.4627  -5.4124  -5.4078
    -5.4000  -5.3172  -5.2981  -5.2731  -5.2562  -5.2536  -5.2284  -5.1936
    -5.1790  -5.1396  -5.0755  -5.0669  -5.0500  -5.0373  -4.9992  -4.9839
    -4.9587  -4.9494  -4.9186  -4.8758  -4.8564  -4.8506  -4.8197  -4.7580
    -4.6135  -4.5327  -4.4722  -4.4142  -4.3588  -4.3512  -4.3074  -4.2964
    -4.2016  -4.1758  -4.1355  -4.1262  -4.1244  -4.1138  -4.0637  -4.0548
    -3.9841  -3.9285  -3.8959  -3.8929  -3.8877  -3.8425  -3.7396  -3.7356
    -3.4810  -3.4720  -3.4609  -3.4415  -3.3638  -3.3622  -3.3501  -3.3363
    -3.1290  -3.1192  -3.1115  -3.1091  -2.9968  -2.9952  -2.9817  -2.9688
    -2.1261  -2.1212  -2.0692  -2.0550  -2.0310  -2.0227  -2.0143  -1.9975
    -1.9941  -1.9881  -1.9608  -1.9570  -1.9326  -1.9309  -1.9181  -1.9097
    -0.9049  -0.8728  -0.7976  -0.7950  -0.7882  -0.7611  -0.7447  -0.7351
     4.4574   4.5062   4.5581   4.5682   4.6271   4.6474   4.6548   4.6607
     6.2879   6.9980   7.1926   7.2708   7.2892   7.5098   7.8151   8.0115
     8.3642   8.5415   8.5637   8.6044   8.6722   8.8235   8.9492   9.0201
     9.0474   9.1532   9.2533   9.3381   9.5045   9.5555   9.6054   9.6923
     9.7643   9.7817   9.8217   9.9732   9.9836  10.1003  10.1405  10.1812

     occupation numbers 
     1.0000   1.0000   1.0000   1.0000   1.0000   1.0000   1.0000   1.0000
     1.0000   1.0000   1.0000   1.0000   1.0000   1.0000   1.0000   1.0000
     1.0000   1.0000   1.0000   1.0000   1.0000   1.0000   1.0000   1.0000
     1.0000   1.0000   1.0000   1.0000   1.0000   1.0000   1.0000   1.0000
     1.0000   1.0000   1.0000   1.0000   1.0000   1.0000   1.0000   1.0000
     1.0000   1.0000   1.0000   1.0000   1.0000   1.0000   1.0000   1.0000
     1.0000   1.0000   1.0000   1.0000   1.0000   1.0000   1.0000   1.0000
     1.0000   1.0000   1.0000   1.0000   1.0000   1.0000   1.0000   1.0000
     1.0000   1.0000   1.0000   1.0000   1.0000   1.0000   1.0000   1.0000
     1.0000   1.0000   1.0000   1.0000   1.0000   1.0000   1.0000   1.0000
     1.0000   1.0000   1.0000   1.0000   1.0000   1.0000   1.0000   1.0000
     1.0000   1.0000   1.0000   1.0000   1.0000   1.0000   1.0000   1.0000
     1.0000   1.0000   1.0000   1.0000   1.0000   1.0000   1.0000   1.0000
     1.0000   1.0000   1.0000   1.0000   1.0000   1.0000   1.0000   1.0000
     1.0000   1.0000   1.0000   1.0000   1.0000   1.0000   1.0000   1.0000
     1.0000   1.0000   1.0000   1.0000   1.0000   1.0000   1.0000   1.0000
     1.0000   1.0000   1.0000   1.0000   1.0000   1.0000   1.0000   1.0000
     1.0000   1.0000   1.0000   1.0000   1.0000   1.0000   1.0000   1.0000
     1.0000   1.0000   1.0000   1.0000   1.0000   1.0000   1.0000   1.0000
     1.0000   1.0000   1.0000   1.0000   1.0000   1.0000   1.0000   1.0000
     1.0000   1.0000   1.0000   1.0000   1.0000   1.0000   1.0000   1.0000
     1.0000   1.0000   1.0000   1.0000   1.0000   1.0000   1.0000   1.0000
     1.0000   1.0000   1.0000   1.0000   1.0000   1.0000   1.0000   1.0000
     1.0000   1.0000   1.0000   1.0000   1.0000   1.0000   1.0000   1.0000
     1.0000   1.0000   1.0000   1.0000   1.0000   1.0000   1.0000   1.0000
     0.0000   0.0000   0.0000   0.0000   0.0000   0.0000   0.0000   0.0000
     0.0000   0.0000   0.0000   0.0000   0.0000   0.0000   0.0000   0.0000
     0.0000   0.0000   0.0000   0.0000   0.0000   0.0000   0.0000   0.0000
     0.0000   0.0000   0.0000   0.0000   0.0000   0.0000   0.0000   0.0000
     0.0000   0.0000   0.0000   0.0000   0.0000   0.0000   0.0000   0.0000

     the Fermi energy is     1.1448 ev

!    total energy              =   -2746.63661681 Ry
     total all-electron energy =     -9653.092735 Ry
     estimated scf accuracy    <       0.00000028 Ry
     smearing contrib. (-TS)   =       0.00000000 Ry
     internal energy E=F+TS    =   -2746.63661681 Ry

     The total energy is F=E-TS. E is the sum of the following terms:
     one-electron contribution =   -1716.81800731 Ry
     hartree contribution      =    1031.22637691 Ry
     xc contribution           =    -503.90081280 Ry
     ewald contribution        =    -959.95112902 Ry
     one-center paw contrib.   =    -597.19304459 Ry
      -> PAW hartree energy AE =    1941.44241204 Ry
      -> PAW hartree energy PS =   -1939.84609650 Ry
      -> PAW xc energy AE      =   -1105.56432567 Ry
      -> PAW xc energy PS      =     506.77496554 Ry
      -> total E_H with PAW    =    1032.82269245 Ry
      -> total E_XC with PAW   =   -1102.69017293 Ry

     convergence has been achieved in  12 iterations

     Forces acting on atoms (cartesian axes, Ry/au):

     atom    1 type  1   force =     0.03351487   -0.08520761   -0.05168428
     atom    2 type  1   force =    -0.03352199   -0.08520657    0.05169042
     atom    3 type  1   force =     0.08523255   -0.03353125   -0.05166050
     atom    4 type  1   force =     0.08520087    0.03351169    0.05167971
     atom    5 type  1   force =    -0.08520087   -0.03351169    0.05167971
     atom    6 type  1   force =    -0.03351487    0.08520761   -0.05168428
     atom    7 type  1   force =     0.03352199    0.08520657    0.05169042
     atom    8 type  1   force =    -0.08523255    0.03353125   -0.05166050
     atom    9 type  1   force =     0.05380091    0.06832403   -0.02125231
     atom   10 type  1   force =    -0.05380735    0.06833282    0.02125957
     atom   11 type  1   force =    -0.06828359   -0.05379960   -0.02119245
     atom   12 type  1   force =    -0.06833930    0.05382734    0.02127383
     atom   13 type  1   force =     0.06833930   -0.05382734    0.02127383
     atom   14 type  1   force =    -0.05380091   -0.06832403   -0.02125231
     atom   15 type  1   force =     0.05380735   -0.06833282    0.02125957
     atom   16 type  1   force =     0.06828359    0.05379960   -0.02119245
     atom   17 type  1   force =    -0.08006705    0.01735918   -0.00425598
     atom   18 type  1   force =     0.08007107    0.01736440    0.00425781
     atom   19 type  1   force =    -0.01733088    0.08000477   -0.00419256
     atom   20 type  1   force =    -0.01735064   -0.08008038    0.00427295
     atom   21 type  1   force =     0.01735064    0.08008038    0.00427295
     atom   22 type  1   force =     0.08006705   -0.01735918   -0.00425598
     atom   23 type  1   force =    -0.08007107   -0.01736440    0.00425781
     atom   24 type  1   force =     0.01733088   -0.08000477   -0.00419256
[...]
     atom    2 type  1   force =     0.00000000    0.00000000    0.00000000
     atom    3 type  1   force =     0.00000000    0.00000000    0.00000000
     atom    4 type  1   force =     0.00000000    0.00000000    0.00000000
     atom    5 type  1   force =     0.00000000    0.00000000    0.00000000
     atom    6 type  1   force =     0.00000000    0.00000000    0.00000000
     atom    7 type  1   force =     0.00000000    0.00000000    0.00000000
     atom    8 type  1   force =     0.00000000    0.00000000    0.00000000
     atom    9 type  1   force =     0.00000000    0.00000000    0.00000000
     atom   10 type  1   force =     0.00000000    0.00000000    0.00000000
     atom   11 type  1   force =     0.00000000    0.00000000    0.00000000
     atom   12 type  1   force =     0.00000000    0.00000000    0.00000000
     atom   13 type  1   force =     0.00000000    0.00000000    0.00000000
     atom   14 type  1   force =     0.00000000    0.00000000    0.00000000
     atom   15 type  1   force =     0.00000000    0.00000000    0.00000000
     atom   16 type  1   force =     0.00000000    0.00000000    0.00000000
     atom   17 type  1   force =     0.00000000    0.00000000    0.00000000
     atom   18 type  1   force =     0.00000000    0.00000000    0.00000000
     atom   19 type  1   force =     0.00000000    0.00000000    0.00000000
     atom   20 type  1   force =     0.00000000    0.00000000    0.00000000
     atom   21 type  1   force =     0.00000000    0.00000000    0.00000000
     atom   22 type  1   force =     0.00000000    0.00000000    0.00000000
     atom   23 type  1   force =     0.00000000    0.00000000    0.00000000
     atom   24 type  1   force =     0.00000000    0.00000000    0.00000000
     atom   25 type  4   force =     0.00000000    0.00000000    0.00000000
     atom   26 type  4   force =     0.00000000    0.00000000    0.00000000
     atom   27 type  4   force =     0.00000000    0.00000000    0.00000000
     atom   28 type  4   force =     0.00000000    0.00000000    0.00000000
     atom   29 type  4   force =     0.00000000    0.00000000    0.00000000
     atom   30 type  4   force =     0.00000000    0.00000000    0.00000000
     atom   31 type  4   force =     0.00000000    0.00000000    0.00000000
     atom   32 type  4   force =     0.00000000    0.00000000    0.00000000
     atom   33 type  4   force =     0.00000000    0.00000000    0.00000000
     atom   34 type  4   force =     0.00000000    0.00000000    0.00000000
     atom   35 type  4   force =     0.00000000    0.00000000    0.00000000
     atom   36 type  4   force =     0.00000000    0.00000000    0.00000000
     atom   37 type  4   force =     0.00000000    0.00000000    0.00000000
     atom   38 type  4   force =     0.00000000    0.00000000    0.00000000
     atom   39 type  4   force =     0.00000000    0.00000000    0.00000000
     atom   40 type  4   force =     0.00000000    0.00000000    0.00000000
     atom   41 type  4   force =     0.00000000    0.00000000    0.00000000
     atom   42 type  4   force =     0.00000000    0.00000000    0.00000000
     atom   43 type  4   force =     0.00000000    0.00000000    0.00000000
     atom   44 type  4   force =     0.00000000    0.00000000    0.00000000
     atom   45 type  4   force =     0.00000000    0.00000000    0.00000000
     atom   46 type  4   force =     0.00000000    0.00000000    0.00000000
     atom   47 type  4   force =     0.00000000    0.00000000    0.00000000
     atom   48 type  4   force =     0.00000000    0.00000000    0.00000000
     atom   49 type  2   force =     0.00000000    0.00000000    0.00000000
     atom   50 type  2   force =     0.00000000    0.00000000    0.00000000
     atom   51 type  2   force =     0.00000000    0.00000000    0.00000000
     atom   52 type  2   force =     0.00000000    0.00000000    0.00000000
     atom   53 type  2   force =     0.00000000    0.00000000    0.00000000
     atom   54 type  2   force =     0.00000000    0.00000000    0.00000000
     atom   55 type  2   force =     0.00000000    0.00000000    0.00000000
     atom   56 type  2   force =     0.00000000    0.00000000    0.00000000
     atom   57 type  2   force =     0.00000000    0.00000000    0.00000000
     atom   58 type  2   force =     0.00000000    0.00000000    0.00000000
     atom   59 type  2   force =     0.00000000    0.00000000    0.00000000
     atom   60 type  2   force =     0.00000000    0.00000000    0.00000000
     atom   61 type  2   force =     0.00000000    0.00000000    0.00000000
     atom   62 type  2   force =     0.00000000    0.00000000    0.00000000
     atom   63 type  2   force =     0.00000000    0.00000000    0.00000000
     atom   64 type  2   force =     0.00000000    0.00000000    0.00000000
     atom   65 type  3   force =     0.00000000    0.00000000    0.00000000
     atom   66 type  3   force =     0.00000000    0.00000000    0.00000000
     atom   67 type  3   force =     0.00000000    0.00000000    0.00000000
     atom   68 type  3   force =     0.00000000    0.00000000    0.00000000
     atom   69 type  3   force =     0.00000000    0.00000000    0.00000000
     atom   70 type  3   force =     0.00000000    0.00000000    0.00000000
     atom   71 type  3   force =     0.00000000    0.00000000    0.00000000
     atom   72 type  3   force =     0.00000000    0.00000000    0.00000000
     atom   73 type  3   force =     0.00000000    0.00000000    0.00000000
     atom   74 type  3   force =     0.00000000    0.00000000    0.00000000
     atom   75 type  3   force =     0.00000000    0.00000000    0.00000000
     atom   76 type  3   force =     0.00000000    0.00000000    0.00000000
     atom   77 type  3   force =     0.00000000    0.00000000    0.00000000
     atom   78 type  3   force =     0.00000000    0.00000000    0.00000000
     atom   79 type  3   force =     0.00000000    0.00000000    0.00000000
     atom   80 type  3   force =     0.00000000    0.00000000    0.00000000
     atom   81 type  3   force =     0.00000000    0.00000000    0.00000000
     atom   82 type  3   force =     0.00000000    0.00000000    0.00000000
     atom   83 type  3   force =     0.00000000    0.00000000    0.00000000
     atom   84 type  3   force =     0.00000000    0.00000000    0.00000000
     atom   85 type  3   force =     0.00000000    0.00000000    0.00000000
     atom   86 type  3   force =     0.00000000    0.00000000    0.00000000
     atom   87 type  3   force =     0.00000000    0.00000000    0.00000000
     atom   88 type  3   force =     0.00000000    0.00000000    0.00000000
     The SCF correction term to forces
     atom    1 type  1   force =    -0.00001666    0.00009946    0.00004953
     atom    2 type  1   force =    -0.00001505    0.00009554   -0.00002640
     atom    3 type  1   force =     0.00002660   -0.00002292    0.00002934
     atom    4 type  1   force =    -0.00000179   -0.00000616   -0.00002730
     atom    5 type  1   force =     0.00000179    0.00000616   -0.00002730
     atom    6 type  1   force =     0.00001666   -0.00009946    0.00004953
     atom    7 type  1   force =     0.00001505   -0.00009554   -0.00002640
     atom    8 type  1   force =    -0.00002660    0.00002292    0.00002934
     atom    9 type  1   force =    -0.00004832    0.00001131    0.00000229
     atom   10 type  1   force =     0.00004154    0.00000513   -0.00000174
     atom   11 type  1   force =     0.00004228   -0.00007040   -0.00003788
     atom   12 type  1   force =     0.00005057    0.00002624    0.00000374
     atom   13 type  1   force =    -0.00005057   -0.00002623    0.00000374
     atom   14 type  1   force =     0.00004832   -0.00001131    0.00000229
     atom   15 type  1   force =    -0.00004154   -0.00000513   -0.00000174
     atom   16 type  1   force =    -0.00004228    0.00007040   -0.00003788
     atom   17 type  1   force =     0.00003334    0.00002830    0.00001033
     atom   18 type  1   force =    -0.00005445    0.00004671   -0.00000880
     atom   19 type  1   force =     0.00005595    0.00000642   -0.00006417
     atom   20 type  1   force =     0.00004947    0.00000855    0.00002276
     atom   21 type  1   force =    -0.00004947   -0.00000854    0.00002276
     atom   22 type  1   force =    -0.00003335   -0.00002830    0.00001033
     atom   23 type  1   force =     0.00005445   -0.00004671   -0.00000880
     atom   24 type  1   force =    -0.00005595   -0.00000642   -0.00006417
     atom   25 type  4   force =     0.00001037   -0.00003388    0.00003296
     atom   26 type  4   force =    -0.00001285   -0.00002337   -0.00002638
     atom   27 type  4   force =     0.00013480   -0.00010038    0.00004801
     atom   28 type  4   force =     0.00011570    0.00006366   -0.00003160
     atom   29 type  4   force =    -0.00011570   -0.00006366   -0.00003160
     atom   30 type  4   force =    -0.00001037    0.00003389    0.00003296
     atom   31 type  4   force =     0.00001285    0.00002338   -0.00002638
     atom   32 type  4   force =    -0.00013480    0.00010038    0.00004801
     atom   33 type  4   force =    -0.00003859    0.00013589   -0.00004163
     atom   34 type  4   force =     0.00003256    0.00013944    0.00004282
     atom   35 type  4   force =     0.00004633   -0.00004164    0.00000403
     atom   36 type  4   force =    -0.00003448   -0.00001377    0.00002094
     atom   37 type  4   force =     0.00003448    0.00001377    0.00002094
     atom   38 type  4   force =     0.00003859   -0.00013589   -0.00004163
     atom   39 type  4   force =    -0.00003256   -0.00013944    0.00004282
     atom   40 type  4   force =    -0.00004633    0.00004164    0.00000403
     atom   41 type  4   force =     0.00000157    0.00000958   -0.00001433
     atom   42 type  4   force =    -0.00002141    0.00001318    0.00000532
     atom   43 type  4   force =     0.00004910   -0.00005945   -0.00003740
     atom   44 type  4   force =     0.00005217    0.00005986    0.00004901
     atom   45 type  4   force =    -0.00005217   -0.00005986    0.00004901
     atom   46 type  4   force =    -0.00000157   -0.00000958   -0.00001433
     atom   47 type  4   force =     0.00002141   -0.00001318    0.00000532
     atom   48 type  4   force =    -0.00004910    0.00005945   -0.00003740
     atom   49 type  2   force =    -0.00001456    0.00004048    0.00001007
     atom   50 type  2   force =     0.00000098    0.00004604   -0.00000631
     atom   51 type  2   force =     0.00005762   -0.00003578   -0.00003580
     atom   52 type  2   force =     0.00002800    0.00000856    0.00001017
     atom   53 type  2   force =    -0.00002800   -0.00000856    0.00001017
     atom   54 type  2   force =     0.00001456   -0.00004048    0.00001007
     atom   55 type  2   force =    -0.00000098   -0.00004604   -0.00000630
     atom   56 type  2   force =    -0.00005762    0.00003578   -0.00003580
     atom   57 type  2   force =    -0.00001634    0.00002027   -0.00006610
     atom   58 type  2   force =     0.00001464    0.00003371    0.00006945
     atom   59 type  2   force =     0.00026647   -0.00012854   -0.00004897
     atom   60 type  2   force =     0.00012084    0.00004778    0.00006196
     atom   61 type  2   force =    -0.00012084   -0.00004778    0.00006196
     atom   62 type  2   force =     0.00001634   -0.00002027   -0.00006610
     atom   63 type  2   force =    -0.00001464   -0.00003371    0.00006945
     atom   64 type  2   force =    -0.00026647    0.00012854   -0.00004897
     atom   65 type  3   force =     0.00000333   -0.00000470    0.00003309
     atom   66 type  3   force =    -0.00000375   -0.00000339   -0.00003008
     atom   67 type  3   force =     0.00003180   -0.00002539    0.00006684
     atom   68 type  3   force =     0.00002235    0.00001587   -0.00004555
     atom   69 type  3   force =    -0.00002235   -0.00001587   -0.00004555
     atom   70 type  3   force =    -0.00000333    0.00000470    0.00003309
     atom   71 type  3   force =     0.00000375    0.00000339   -0.00003008
     atom   72 type  3   force =    -0.00003180    0.00002539    0.00006684
     atom   73 type  3   force =    -0.00000370    0.00000190    0.00000011
     atom   74 type  3   force =    -0.00000315    0.00000195   -0.00000011
     atom   75 type  3   force =     0.00000735   -0.00001070   -0.00000888
     atom   76 type  3   force =     0.00000921    0.00001237    0.00001119
     atom   77 type  3   force =    -0.00000921   -0.00001237    0.00001119
     atom   78 type  3   force =     0.00000370   -0.00000190    0.00000011
     atom   79 type  3   force =     0.00000315   -0.00000195   -0.00000011
     atom   80 type  3   force =    -0.00000735    0.00001070   -0.00000888
     atom   81 type  3   force =    -0.00000513   -0.00000376   -0.00000093
     atom   82 type  3   force =     0.00000140   -0.00000235   -0.00000250
     atom   83 type  3   force =     0.00000850   -0.00000485   -0.00000599
     atom   84 type  3   force =     0.00000993    0.00000447    0.00000692
     atom   85 type  3   force =    -0.00000993   -0.00000447    0.00000692
     atom   86 type  3   force =     0.00000513    0.00000376   -0.00000093
     atom   87 type  3   force =    -0.00000140    0.00000235   -0.00000250
     atom   88 type  3   force =    -0.00000850    0.00000485   -0.00000599

     Total force =     4.125466     Total SCF correction =     0.000804


     Computing stress (Cartesian axis) and pressure

          total   stress  (Ry/bohr**3)                   (kbar)     P=      212.92
   0.00165788   0.00000053   0.00000000          243.88        0.08        0.00
   0.00000053   0.00165868   0.00000000            0.08      244.00        0.00
   0.00000000   0.00000000   0.00102560            0.00        0.00      150.87

     kinetic stress (kbar)  15396.22     -0.05     -0.00
                               -0.05  15396.05      0.00
                               -0.00      0.00  15796.53

     local   stress (kbar) -15240.58     -0.77     -0.00
                               -0.77 -15241.28     -0.00
                               -0.00     -0.00 -18151.94

     nonloc. stress (kbar)   3765.71     -0.00      0.00
                               -0.00   3765.71     -0.00
                                0.00     -0.00   3874.53

     hartree stress (kbar)   7153.73      0.19      0.00
                                0.19   7153.74     -0.00
                                0.00     -0.00   8544.38

     exc-cor stress (kbar)  -2680.52      0.00     -0.00
                                0.00  -2680.52     -0.00
                               -0.00     -0.00  -2676.73

     corecor stress (kbar)   -752.84     -0.00      0.00
                               -0.00   -752.84      0.00
                                0.00      0.00   -758.22

     ewald   stress (kbar)  -7397.84      0.71      0.00
                                0.71  -7396.87      0.00
                                0.00      0.00  -6477.69

     hubbard stress (kbar)      0.00      0.00      0.00
                                0.00      0.00      0.00
                                0.00      0.00      0.00

     DFT-D   stress (kbar)      0.00      0.00      0.00
                                0.00      0.00      0.00
                                0.00      0.00      0.00

     XDM     stress (kbar)      0.00      0.00      0.00
                                0.00      0.00      0.00
                                0.00      0.00      0.00

     dft-nl  stress (kbar)      0.00      0.00      0.00
                                0.00      0.00      0.00
                                0.00      0.00      0.00

     TS-vdW  stress (kbar)      0.00      0.00      0.00
                                0.00      0.00      0.00
                                0.00      0.00      0.00

     MDB     stress (kbar)      0.00      0.00      0.00
                                0.00      0.00      0.00
                                0.00      0.00      0.00

     3D-RISM stress (kbar)      0.00      0.00      0.00
                                0.00      0.00      0.00
                                0.00      0.00      0.00


     Writing all to output data dir ./energybasic.save/

     init_run     :    438.39s CPU    151.04s WALL (       1 calls)
     electrons    :  15786.84s CPU   5353.30s WALL (       1 calls)
     forces       :    152.94s CPU     97.65s WALL (       1 calls)
     stress       :   3250.47s CPU    974.24s WALL (       1 calls)

     Called by init_run:
     wfcinit      :    403.05s CPU    132.09s WALL (       1 calls)
     wfcinit:atom :      1.62s CPU      2.23s WALL (      10 calls)
     wfcinit:wfcr :    389.53s CPU    117.25s WALL (      10 calls)
     potinit      :     16.24s CPU      5.55s WALL (       1 calls)
     hinit0       :     16.12s CPU     10.64s WALL (       1 calls)

     Called by electrons:
     c_bands      :  13777.03s CPU   4673.68s WALL (      12 calls)
     sum_band     :   1852.89s CPU    616.62s WALL (      12 calls)
     v_of_rho     :     32.72s CPU     18.41s WALL (      13 calls)
     v_h          :      1.96s CPU      0.70s WALL (      13 calls)
     v_xc         :     35.32s CPU     19.66s WALL (      15 calls)
     newd         :     44.91s CPU     20.05s WALL (      13 calls)
     PAW_pot      :     80.57s CPU     10.70s WALL (      13 calls)
     mix_rho      :      4.90s CPU      8.57s WALL (      12 calls)

     Called by c_bands:
     init_us_2    :     33.95s CPU    128.32s WALL (     270 calls)
     init_us_2:cp :     33.93s CPU    128.27s WALL (     270 calls)
     cegterg      :  13661.66s CPU   4215.12s WALL (     120 calls)

     Called by sum_band:
     sum_band:wei :      0.01s CPU      0.04s WALL (      12 calls)
     sum_band:loo :   1815.00s CPU    476.04s WALL (      12 calls)
     sum_band:buf :     14.20s CPU     37.28s WALL (     120 calls)
     sum_band:ini :     14.96s CPU      3.61s WALL (     120 calls)
     sum_band:cal :    291.93s CPU     32.72s WALL (     120 calls)
     sum_band:bec :     13.23s CPU     -6.40s WALL (     120 calls)
     addusdens    :     32.78s CPU     70.49s WALL (      12 calls)
                                        0.00s GPU  (      12 calls)
     addusd:skk   :      4.31s CPU     10.31s WALL (      48 calls)
                                        0.00s GPU  (      48 calls)

     Called by *egterg:
     cdiaghg      :    208.33s CPU     96.72s WALL (     929 calls)
     cegterg:over :    868.40s CPU    315.31s WALL (     809 calls)
     cegterg:upda :    568.79s CPU    152.13s WALL (     809 calls)
     cegterg:last :   1293.86s CPU    271.57s WALL (     312 calls)
     h_psi        :   9825.01s CPU   3026.60s WALL (     939 calls)
     s_psi        :    880.10s CPU    253.47s WALL (     939 calls)
     g_psi        :     38.99s CPU     16.08s WALL (     809 calls)

     Called by h_psi:
     h_psi:calbec :    906.76s CPU    325.25s WALL (     939 calls)
     vloc_psi     :   8039.04s CPU   2191.39s WALL (     939 calls)
     add_vuspsi   :    838.25s CPU    493.58s WALL (     939 calls)

     General routines
     calbec       :   1320.05s CPU    443.89s WALL (    1109 calls)
     fft          :     15.93s CPU      5.40s WALL (     192 calls)
     ffts         :      2.96s CPU      1.32s WALL (      25 calls)
     fftw         :   7221.00s CPU   1866.73s WALL (  204054 calls)
     interpolate  :      3.67s CPU      1.40s WALL (      13 calls)

     Parallel routines

     PAW routines
     PAW_pot      :     80.57s CPU     10.70s WALL (      13 calls)
     PAW_symme    :      0.05s CPU      0.02s WALL (      25 calls)

     PWSCF        :      5h27m CPU      1h49m WALL


   This run was terminated on:   9:38:21  28Jan2026            

=------------------------------------------------------------------------------=
   JOB DONE.
=------------------------------------------------------------------------------=
