
     Program PWSCF v.7.2 starts on 12Feb2026 at  4:51:53 

     This program is part of the open-source Quantum ESPRESSO suite
     for quantum simulation of materials; please cite
         "P. Giannozzi et al., J. Phys.:Condens. Matter 21 395502 (2009);
         "P. Giannozzi et al., J. Phys.:Condens. Matter 29 465901 (2017);
         "P. Giannozzi et al., J. Chem. Phys. 152 154105 (2020);
          URL http://www.quantum-espresso.org", 
     in publications or presentations arising from this work. More details at
     http://www.quantum-espresso.org/quote

     Parallel version (MPI & OpenMP), running on       4 processor cores
     Number of MPI processes:                 1
     Threads/MPI process:                     4

     MPI processes distributed on     1 nodes
     3610 MiB available memory on the printing compute node when the environment starts

     Reading input from TFAconv.in

     Current dimensions of program PWSCF are:
     Max number of different atomic species (ntypx) = 10
     Max number of k-points (npk) =  40000
     Max angular momentum in pseudopotentials (lmaxx) =  4
     file C.pbe-n-kjpaw_psl.1.0.0.UPF: wavefunction(s)  2S 2P renormalized
     file H.pbe-kjpaw_psl.1.0.0.UPF: wavefunction(s)  1S renormalized
     file O.pbe-n-kjpaw_psl.1.0.0.UPF: wavefunction(s)  2S 2P renormalized
     file F.pbe-n-kjpaw_psl.1.0.0.UPF: wavefunction(s)  2S 2P renormalized

     IMPORTANT: XC functional enforced from input :
     Exchange-correlation= PBE
                           (   1   4   3   4   0   0   0)
     Any further DFT definition will be discarded
     Please, verify this is what you really want


     Subspace diagonalization in iterative solution of the eigenvalue problem:
     a serial algorithm will be used


     G-vector sticks info
     --------------------
     sticks:   dense  smooth     PW     G-vecs:    dense   smooth      PW
     Sum        1993    1117    325                66299    28425    4385

     Using Slab Decomposition



     bravais-lattice index     =            0
     lattice parameter (alat)  =       8.4265  a.u.
     unit-cell volume          =     598.3386 (a.u.)^3
     number of atoms/cell      =            8
     number of atomic types    =            4
     number of electrons       =        42.00
     number of Kohn-Sham states=           25
     kinetic-energy cutoff     =      50.0000  Ry
     charge density cutoff     =     350.0000  Ry
     scf convergence threshold =      1.0E-06
     mixing beta               =       0.7000
     number of iterations used =            8  plain     mixing
     Exchange-correlation= PBE
                           (   1   4   3   4   0   0   0)

     celldm(1)=   8.426534  celldm(2)=   0.000000  celldm(3)=   0.000000
     celldm(4)=   0.000000  celldm(5)=   0.000000  celldm(6)=   0.000000

     crystal axes: (cart. coord. in units of alat)
               a(1) = (   1.000000   0.000000   0.000000 )  
               a(2) = (   0.000000   1.000000   0.000000 )  
               a(3) = (   0.000000   0.000000   1.000000 )  

     reciprocal axes: (cart. coord. in units 2 pi/alat)
               b(1) = (  1.000000  0.000000  0.000000 )  
               b(2) = (  0.000000  1.000000  0.000000 )  
               b(3) = (  0.000000  0.000000  1.000000 )  


     PseudoPot. # 1 for C  read from file:
     ./C.pbe-n-kjpaw_psl.1.0.0.UPF
     MD5 check sum: 5f16ad9a65e90284d1d834d4ab3b0f7d
     Pseudo is Projector augmented-wave + core cor, Zval =  4.0
     Generated using &quot;atomic&quot; code by A. Dal Corso  v.6.3
     Shape of augmentation charge: PSQ
     Using radial grid of 1073 points,  4 beta functions with: 
                l(1) =   0
                l(2) =   0
                l(3) =   1
                l(4) =   1
     Q(r) pseudized with 0 coefficients 


     PseudoPot. # 2 for H  read from file:
     ./H.pbe-kjpaw_psl.1.0.0.UPF
     MD5 check sum: d81a744832360e4a8af0b0b5b123bc2a
     Pseudo is Projector augmented-wave, Zval =  1.0
     Generated using &quot;atomic&quot; code by A. Dal Corso  v.6.3MaX
     Shape of augmentation charge: PSQ
     Using radial grid of  929 points,  2 beta functions with: 
                l(1) =   0
                l(2) =   0
     Q(r) pseudized with 0 coefficients 


     PseudoPot. # 3 for O  read from file:
     ./O.pbe-n-kjpaw_psl.1.0.0.UPF
     MD5 check sum: e99d9cef9b487d1ca56f5b95ecd0fd7a
     Pseudo is Projector augmented-wave + core cor, Zval =  6.0
     Generated using &quot;atomic&quot; code by A. Dal Corso  v.6.3
     Shape of augmentation charge: PSQ
     Using radial grid of 1095 points,  4 beta functions with: 
                l(1) =   0
                l(2) =   0
                l(3) =   1
                l(4) =   1
     Q(r) pseudized with 0 coefficients 


     PseudoPot. # 4 for F  read from file:
     ./F.pbe-n-kjpaw_psl.1.0.0.UPF
     MD5 check sum: 66d718ea72839a4268ab2a9540e8cdd4
     Pseudo is Projector augmented-wave + core cor, Zval =  7.0
     Generated using &quot;atomic&quot; code by A. Dal Corso  v.6.3
     Shape of augmentation charge: PSQ
     Using radial grid of 1105 points,  4 beta functions with: 
                l(1) =   0
                l(2) =   0
                l(3) =   1
                l(4) =   1
     Q(r) pseudized with 0 coefficients 


     atomic species   valence    mass     pseudopotential
        C              4.00    12.01060     C ( 1.00)
        H              1.00     1.00750     H ( 1.00)
        O              6.00    15.99900     O ( 1.00)
        F              7.00    18.99800     F ( 1.00)

     No symmetry found


                                    s                        frac. trans.

      isym =  1     identity                                     

 cryst.   s( 1) = (     1          0          0      )
                  (     0          1          0      )
                  (     0          0          1      )

 cart.    s( 1) = (  1.0000000  0.0000000  0.0000000 )
                  (  0.0000000  1.0000000  0.0000000 )
                  (  0.0000000  0.0000000  1.0000000 )


   Cartesian axes

     site n.     atom                  positions (alat units)
         1           F   tau(   1) = (   0.1159450   0.7650630   0.4951220  )
         2           F   tau(   2) = (   0.1000000   0.3448240   0.7443420  )
         3           F   tau(   3) = (   0.1059880   0.3389260   0.2556580  )
         4           O   tau(   4) = (   0.6801810   0.7445430   0.4996300  )
         5           O   tau(   5) = (   0.7017320   0.2349370   0.4996970  )
         6           C   tau(   6) = (   0.2210100   0.4794920   0.4998320  )
         7           C   tau(   7) = (   0.5557840   0.4671800   0.5025000  )
         8           H   tau(   8) = (   0.9000000   0.7360220   0.4974550  )

   Crystallographic axes

     site n.     atom                  positions (cryst. coord.)
         1           F   tau(   1) = (  0.1159450  0.7650630  0.4951220  )
         2           F   tau(   2) = (  0.1000000  0.3448240  0.7443420  )
         3           F   tau(   3) = (  0.1059880  0.3389260  0.2556580  )
         4           O   tau(   4) = (  0.6801810  0.7445430  0.4996300  )
         5           O   tau(   5) = (  0.7017320  0.2349370  0.4996970  )
         6           C   tau(   6) = (  0.2210100  0.4794920  0.4998320  )
         7           C   tau(   7) = (  0.5557840  0.4671800  0.5025000  )
         8           H   tau(   8) = (  0.9000000  0.7360220  0.4974550  )

     number of k points=    63  Marzari-Vanderbilt smearing, width (Ry)=  0.0050
                       cart. coord. in units 2pi/alat
        k(    1) = (   0.0000000   0.0000000   0.0000000), wk =   0.0160000
        k(    2) = (   0.0000000   0.0000000   0.2000000), wk =   0.0320000
        k(    3) = (   0.0000000   0.0000000   0.4000000), wk =   0.0320000
        k(    4) = (   0.0000000   0.2000000   0.2000000), wk =   0.0320000
        k(    5) = (   0.0000000   0.2000000   0.4000000), wk =   0.0320000
        k(    6) = (   0.0000000   0.4000000   0.4000000), wk =   0.0320000
        k(    7) = (   0.2000000   0.2000000   0.2000000), wk =   0.0320000
        k(    8) = (   0.2000000   0.2000000   0.4000000), wk =   0.0320000
        k(    9) = (   0.2000000   0.4000000   0.4000000), wk =   0.0320000
        k(   10) = (   0.4000000   0.4000000   0.4000000), wk =   0.0320000
        k(   11) = (   0.2000000   0.0000000   0.0000000), wk =   0.0320000
        k(   12) = (   0.0000000   0.2000000   0.0000000), wk =   0.0320000
        k(   13) = (   0.4000000   0.0000000   0.0000000), wk =   0.0320000
        k(   14) = (   0.0000000   0.4000000   0.0000000), wk =   0.0320000
        k(   15) = (   0.0000000  -0.2000000   0.2000000), wk =   0.0320000
        k(   16) = (   0.2000000   0.0000000  -0.2000000), wk =   0.0320000
        k(   17) = (  -0.2000000   0.0000000  -0.2000000), wk =   0.0320000
        k(   18) = (   0.2000000  -0.2000000   0.0000000), wk =   0.0320000
        k(   19) = (  -0.2000000  -0.2000000   0.0000000), wk =   0.0320000
        k(   20) = (   0.0000000  -0.2000000   0.4000000), wk =   0.0320000
        k(   21) = (   0.2000000   0.0000000  -0.4000000), wk =   0.0320000
        k(   22) = (  -0.2000000   0.0000000  -0.4000000), wk =   0.0320000
        k(   23) = (   0.4000000  -0.2000000   0.0000000), wk =   0.0320000
        k(   24) = (  -0.4000000  -0.2000000   0.0000000), wk =   0.0320000
        k(   25) = (   0.0000000   0.4000000   0.2000000), wk =   0.0320000
        k(   26) = (   0.0000000   0.4000000  -0.2000000), wk =   0.0320000
        k(   27) = (   0.2000000   0.4000000   0.0000000), wk =   0.0320000
        k(   28) = (  -0.2000000   0.4000000   0.0000000), wk =   0.0320000
        k(   29) = (   0.4000000   0.0000000   0.2000000), wk =   0.0320000
        k(   30) = (   0.4000000   0.0000000  -0.2000000), wk =   0.0320000
        k(   31) = (   0.0000000  -0.4000000   0.4000000), wk =   0.0320000
        k(   32) = (   0.4000000   0.0000000  -0.4000000), wk =   0.0320000
        k(   33) = (  -0.4000000   0.0000000  -0.4000000), wk =   0.0320000
        k(   34) = (   0.4000000  -0.4000000   0.0000000), wk =   0.0320000
        k(   35) = (  -0.4000000  -0.4000000   0.0000000), wk =   0.0320000
        k(   36) = (  -0.2000000  -0.2000000   0.2000000), wk =   0.0320000
        k(   37) = (  -0.2000000   0.2000000  -0.2000000), wk =   0.0320000
        k(   38) = (   0.2000000  -0.2000000  -0.2000000), wk =   0.0320000
        k(   39) = (  -0.2000000  -0.2000000   0.4000000), wk =   0.0320000
        k(   40) = (  -0.2000000   0.2000000  -0.4000000), wk =   0.0320000
        k(   41) = (   0.2000000  -0.2000000  -0.4000000), wk =   0.0320000
        k(   42) = (   0.4000000  -0.2000000   0.2000000), wk =   0.0320000
        k(   43) = (  -0.4000000  -0.2000000  -0.2000000), wk =   0.0320000
        k(   44) = (   0.4000000   0.2000000  -0.2000000), wk =   0.0320000
        k(   45) = (  -0.4000000   0.2000000   0.2000000), wk =   0.0320000
        k(   46) = (  -0.2000000   0.4000000   0.2000000), wk =   0.0320000
        k(   47) = (  -0.2000000  -0.4000000  -0.2000000), wk =   0.0320000
        k(   48) = (   0.2000000   0.4000000  -0.2000000), wk =   0.0320000
        k(   49) = (   0.2000000  -0.4000000   0.2000000), wk =   0.0320000
        k(   50) = (  -0.2000000  -0.4000000   0.4000000), wk =   0.0320000
        k(   51) = (  -0.2000000   0.4000000  -0.4000000), wk =   0.0320000
        k(   52) = (   0.2000000  -0.4000000  -0.4000000), wk =   0.0320000
        k(   53) = (   0.4000000   0.2000000  -0.4000000), wk =   0.0320000
        k(   54) = (  -0.4000000  -0.2000000  -0.4000000), wk =   0.0320000
        k(   55) = (   0.4000000  -0.2000000   0.4000000), wk =   0.0320000
        k(   56) = (  -0.4000000   0.2000000   0.4000000), wk =   0.0320000
        k(   57) = (   0.4000000  -0.4000000   0.2000000), wk =   0.0320000
        k(   58) = (  -0.4000000  -0.4000000  -0.2000000), wk =   0.0320000
        k(   59) = (   0.4000000   0.4000000  -0.2000000), wk =   0.0320000
        k(   60) = (  -0.4000000   0.4000000   0.2000000), wk =   0.0320000
        k(   61) = (  -0.4000000  -0.4000000   0.4000000), wk =   0.0320000
        k(   62) = (  -0.4000000   0.4000000  -0.4000000), wk =   0.0320000
        k(   63) = (   0.4000000  -0.4000000  -0.4000000), wk =   0.0320000

                       cryst. coord.
        k(    1) = (   0.0000000   0.0000000   0.0000000), wk =   0.0160000
        k(    2) = (   0.0000000   0.0000000   0.2000000), wk =   0.0320000
        k(    3) = (   0.0000000   0.0000000   0.4000000), wk =   0.0320000
        k(    4) = (   0.0000000   0.2000000   0.2000000), wk =   0.0320000
        k(    5) = (   0.0000000   0.2000000   0.4000000), wk =   0.0320000
        k(    6) = (   0.0000000   0.4000000   0.4000000), wk =   0.0320000
        k(    7) = (   0.2000000   0.2000000   0.2000000), wk =   0.0320000
        k(    8) = (   0.2000000   0.2000000   0.4000000), wk =   0.0320000
        k(    9) = (   0.2000000   0.4000000   0.4000000), wk =   0.0320000
        k(   10) = (   0.4000000   0.4000000   0.4000000), wk =   0.0320000
        k(   11) = (   0.2000000   0.0000000   0.0000000), wk =   0.0320000
        k(   12) = (   0.0000000   0.2000000   0.0000000), wk =   0.0320000
        k(   13) = (   0.4000000   0.0000000   0.0000000), wk =   0.0320000
        k(   14) = (   0.0000000   0.4000000   0.0000000), wk =   0.0320000
        k(   15) = (   0.0000000  -0.2000000   0.2000000), wk =   0.0320000
        k(   16) = (   0.2000000   0.0000000  -0.2000000), wk =   0.0320000
        k(   17) = (  -0.2000000   0.0000000  -0.2000000), wk =   0.0320000
        k(   18) = (   0.2000000  -0.2000000   0.0000000), wk =   0.0320000
        k(   19) = (  -0.2000000  -0.2000000   0.0000000), wk =   0.0320000
        k(   20) = (   0.0000000  -0.2000000   0.4000000), wk =   0.0320000
        k(   21) = (   0.2000000   0.0000000  -0.4000000), wk =   0.0320000
        k(   22) = (  -0.2000000   0.0000000  -0.4000000), wk =   0.0320000
        k(   23) = (   0.4000000  -0.2000000   0.0000000), wk =   0.0320000
        k(   24) = (  -0.4000000  -0.2000000   0.0000000), wk =   0.0320000
        k(   25) = (   0.0000000   0.4000000   0.2000000), wk =   0.0320000
        k(   26) = (   0.0000000   0.4000000  -0.2000000), wk =   0.0320000
        k(   27) = (   0.2000000   0.4000000   0.0000000), wk =   0.0320000
        k(   28) = (  -0.2000000   0.4000000   0.0000000), wk =   0.0320000
        k(   29) = (   0.4000000   0.0000000   0.2000000), wk =   0.0320000
        k(   30) = (   0.4000000   0.0000000  -0.2000000), wk =   0.0320000
        k(   31) = (   0.0000000  -0.4000000   0.4000000), wk =   0.0320000
        k(   32) = (   0.4000000   0.0000000  -0.4000000), wk =   0.0320000
        k(   33) = (  -0.4000000   0.0000000  -0.4000000), wk =   0.0320000
        k(   34) = (   0.4000000  -0.4000000   0.0000000), wk =   0.0320000
        k(   35) = (  -0.4000000  -0.4000000   0.0000000), wk =   0.0320000
        k(   36) = (  -0.2000000  -0.2000000   0.2000000), wk =   0.0320000
        k(   37) = (  -0.2000000   0.2000000  -0.2000000), wk =   0.0320000
        k(   38) = (   0.2000000  -0.2000000  -0.2000000), wk =   0.0320000
        k(   39) = (  -0.2000000  -0.2000000   0.4000000), wk =   0.0320000
        k(   40) = (  -0.2000000   0.2000000  -0.4000000), wk =   0.0320000
        k(   41) = (   0.2000000  -0.2000000  -0.4000000), wk =   0.0320000
        k(   42) = (   0.4000000  -0.2000000   0.2000000), wk =   0.0320000
        k(   43) = (  -0.4000000  -0.2000000  -0.2000000), wk =   0.0320000
        k(   44) = (   0.4000000   0.2000000  -0.2000000), wk =   0.0320000
        k(   45) = (  -0.4000000   0.2000000   0.2000000), wk =   0.0320000
        k(   46) = (  -0.2000000   0.4000000   0.2000000), wk =   0.0320000
        k(   47) = (  -0.2000000  -0.4000000  -0.2000000), wk =   0.0320000
        k(   48) = (   0.2000000   0.4000000  -0.2000000), wk =   0.0320000
        k(   49) = (   0.2000000  -0.4000000   0.2000000), wk =   0.0320000
        k(   50) = (  -0.2000000  -0.4000000   0.4000000), wk =   0.0320000
        k(   51) = (  -0.2000000   0.4000000  -0.4000000), wk =   0.0320000
        k(   52) = (   0.2000000  -0.4000000  -0.4000000), wk =   0.0320000
        k(   53) = (   0.4000000   0.2000000  -0.4000000), wk =   0.0320000
        k(   54) = (  -0.4000000  -0.2000000  -0.4000000), wk =   0.0320000
        k(   55) = (   0.4000000  -0.2000000   0.4000000), wk =   0.0320000
        k(   56) = (  -0.4000000   0.2000000   0.4000000), wk =   0.0320000
        k(   57) = (   0.4000000  -0.4000000   0.2000000), wk =   0.0320000
        k(   58) = (  -0.4000000  -0.4000000  -0.2000000), wk =   0.0320000
        k(   59) = (   0.4000000   0.4000000  -0.2000000), wk =   0.0320000
        k(   60) = (  -0.4000000   0.4000000   0.2000000), wk =   0.0320000
        k(   61) = (  -0.4000000  -0.4000000   0.4000000), wk =   0.0320000
        k(   62) = (  -0.4000000   0.4000000  -0.4000000), wk =   0.0320000
        k(   63) = (   0.4000000  -0.4000000  -0.4000000), wk =   0.0320000

     Dense  grid:    66299 G-vectors     FFT dimensions: (  54,  54,  54)

     Smooth grid:    28425 G-vectors     FFT dimensions: (  40,  40,  40)

     Dynamical RAM for                 wfc:       1.36 MB

     Dynamical RAM for     wfc (w. buffer):      87.21 MB

     Dynamical RAM for           str. fact:       4.05 MB

     Dynamical RAM for           local pot:       0.00 MB

     Dynamical RAM for          nlocal pot:       3.16 MB

     Dynamical RAM for                qrad:       1.72 MB

     Dynamical RAM for          rho,v,vnew:       6.64 MB

     Dynamical RAM for               rhoin:       2.21 MB

     Dynamical RAM for            rho*nmix:      16.19 MB

     Dynamical RAM for           G-vectors:       4.01 MB

     Dynamical RAM for          h,s,v(r/c):       0.11 MB

     Dynamical RAM for          <psi|beta>:       0.02 MB

     Dynamical RAM for                 psi:       2.73 MB

     Dynamical RAM for                hpsi:       2.73 MB

     Dynamical RAM for                spsi:       2.73 MB

     Dynamical RAM for      wfcinit/wfcrot:       3.18 MB

     Dynamical RAM for           addusdens:      46.54 MB

     Dynamical RAM for          addusforce:      51.09 MB

     Dynamical RAM for         addusstress:      50.58 MB

     Estimated static dynamical RAM per process >     120.06 MB

     Estimated max dynamical RAM per process >     187.33 MB

     Check: negative core charge=   -0.000007

     Initial potential from superposition of free atoms

     starting charge      41.9999, renormalised to      42.0000
     Starting wfcs are   29 randomized atomic wfcs
     Checking if some PAW data can be deallocated... 

     total cpu time spent up to now is       15.3 secs

     per-process dynamical memory:   132.5 Mb

     Self-consistent Calculation

     iteration #  1     ecut=    50.00 Ry     beta= 0.70
     Davidson diagonalization with overlap

---- Real-time Memory Report at c_bands before calling an iterative solver
           154 MiB given to the printing process from OS
           129 MiB allocation reported by mallinfo(arena+hblkhd)
          3475 MiB available memory on the node where the printing process lives
------------------
     ethr =  1.00E-02,  avg # of iterations =  4.1

     total cpu time spent up to now is       69.4 secs

     total energy              =    -298.57694329 Ry
     estimated scf accuracy    <       1.06407002 Ry

     iteration #  2     ecut=    50.00 Ry     beta= 0.70
     Davidson diagonalization with overlap

---- Real-time Memory Report at c_bands before calling an iterative solver
           203 MiB given to the printing process from OS
           141 MiB allocation reported by mallinfo(arena+hblkhd)
          3461 MiB available memory on the node where the printing process lives
------------------
     ethr =  2.53E-03,  avg # of iterations =  5.4

     total cpu time spent up to now is      135.0 secs

     total energy              =    -298.81853485 Ry
     estimated scf accuracy    <       1.39632535 Ry

     iteration #  3     ecut=    50.00 Ry     beta= 0.70
     Davidson diagonalization with overlap

---- Real-time Memory Report at c_bands before calling an iterative solver
           204 MiB given to the printing process from OS
           142 MiB allocation reported by mallinfo(arena+hblkhd)
          3457 MiB available memory on the node where the printing process lives
------------------
     ethr =  2.53E-03,  avg # of iterations =  2.0

     total cpu time spent up to now is      172.6 secs

     total energy              =    -299.04741824 Ry
     estimated scf accuracy    <       0.06566155 Ry

     iteration #  4     ecut=    50.00 Ry     beta= 0.70
     Davidson diagonalization with overlap

---- Real-time Memory Report at c_bands before calling an iterative solver
           205 MiB given to the printing process from OS
           143 MiB allocation reported by mallinfo(arena+hblkhd)
          3456 MiB available memory on the node where the printing process lives
------------------
     ethr =  1.56E-04,  avg # of iterations =  7.3

     total cpu time spent up to now is      255.1 secs

     total energy              =    -299.11229229 Ry
     estimated scf accuracy    <       0.03300685 Ry

     iteration #  5     ecut=    50.00 Ry     beta= 0.70
     Davidson diagonalization with overlap

---- Real-time Memory Report at c_bands before calling an iterative solver
           206 MiB given to the printing process from OS
           144 MiB allocation reported by mallinfo(arena+hblkhd)
          3452 MiB available memory on the node where the printing process lives
------------------
     ethr =  7.86E-05,  avg # of iterations =  2.9

     total cpu time spent up to now is      296.8 secs

     total energy              =    -299.11379036 Ry
     estimated scf accuracy    <       0.00738605 Ry

     iteration #  6     ecut=    50.00 Ry     beta= 0.70
     Davidson diagonalization with overlap

---- Real-time Memory Report at c_bands before calling an iterative solver
           207 MiB given to the printing process from OS
           145 MiB allocation reported by mallinfo(arena+hblkhd)
          3447 MiB available memory on the node where the printing process lives
------------------
     ethr =  1.76E-05,  avg # of iterations =  7.7

     total cpu time spent up to now is      376.9 secs

     total energy              =    -299.11650529 Ry
     estimated scf accuracy    <       0.00093055 Ry

     iteration #  7     ecut=    50.00 Ry     beta= 0.70
     Davidson diagonalization with overlap

---- Real-time Memory Report at c_bands before calling an iterative solver
           207 MiB given to the printing process from OS
           146 MiB allocation reported by mallinfo(arena+hblkhd)
          3470 MiB available memory on the node where the printing process lives
------------------
     ethr =  2.22E-06,  avg # of iterations =  8.4

     total cpu time spent up to now is      454.1 secs

     total energy              =    -299.11651116 Ry
     estimated scf accuracy    <       0.00027901 Ry

     iteration #  8     ecut=    50.00 Ry     beta= 0.70
     Davidson diagonalization with overlap

---- Real-time Memory Report at c_bands before calling an iterative solver
           209 MiB given to the printing process from OS
           147 MiB allocation reported by mallinfo(arena+hblkhd)
          3476 MiB available memory on the node where the printing process lives
------------------
     ethr =  6.64E-07,  avg # of iterations =  4.1

     total cpu time spent up to now is      506.0 secs

     total energy              =    -299.11658085 Ry
     estimated scf accuracy    <       0.00000989 Ry

     iteration #  9     ecut=    50.00 Ry     beta= 0.70
     Davidson diagonalization with overlap

---- Real-time Memory Report at c_bands before calling an iterative solver
           210 MiB given to the printing process from OS
           148 MiB allocation reported by mallinfo(arena+hblkhd)
          3472 MiB available memory on the node where the printing process lives
------------------
     ethr =  2.36E-08,  avg # of iterations =  5.3

     total cpu time spent up to now is      573.5 secs

     total energy              =    -299.11659121 Ry
     estimated scf accuracy    <       0.00000308 Ry

     iteration # 10     ecut=    50.00 Ry     beta= 0.70
     Davidson diagonalization with overlap

---- Real-time Memory Report at c_bands before calling an iterative solver
           210 MiB given to the printing process from OS
           148 MiB allocation reported by mallinfo(arena+hblkhd)
          3473 MiB available memory on the node where the printing process lives
------------------
     ethr =  7.32E-09,  avg # of iterations =  1.9

     total cpu time spent up to now is      613.5 secs

     End of self-consistent calculation

          k = 0.0000 0.0000 0.0000 (  3575 PWs)   bands (ev):

   -27.8871 -24.8894 -23.5244 -19.7413 -17.3831 -13.5088 -10.0730  -9.2667
    -7.5433  -7.1195  -5.8462  -5.1960  -3.8507  -3.2459  -3.1838  -3.1252
    -2.1492  -1.9969  -0.6222   0.5295   2.1201   5.6564   7.0434   8.5205
     9.9615

     occupation numbers 
     1.0000   1.0000   1.0000   1.0000   1.0000   1.0000   1.0000   1.0000
     1.0000   1.0000   1.0000   1.0000   1.0000   1.0000   1.0000   1.0000
     1.0000   1.0000   1.0000   1.0000   1.0000   0.0000   0.0000   0.0000
     0.0000

          k = 0.0000 0.0000 0.2000 (  3595 PWs)   bands (ev):

   -27.8805 -24.8412 -23.6098 -19.7392 -17.3810 -13.4844  -9.9220  -9.2270
    -7.7221  -6.9180  -5.8381  -5.2914  -3.7895  -3.3461  -3.2121  -3.1156
    -2.5353  -1.9341  -0.6110   0.5023   2.1254   5.5923   7.5118   8.6277
    10.1821

     occupation numbers 
     1.0000   1.0000   1.0000   1.0000   1.0000   1.0000   1.0000   1.0000
     1.0000   1.0000   1.0000   1.0000   1.0000   1.0000   1.0000   1.0000
     1.0000   1.0000   1.0000   1.0000   1.0000   0.0000   0.0000   0.0000
     0.0000

          k = 0.0000 0.0000 0.4000 (  3551 PWs)   bands (ev):

   -27.8698 -24.7465 -23.7639 -19.7359 -17.3777 -13.4471  -9.6806  -9.1021
    -7.9973  -6.5558  -5.8135  -5.5168  -3.6623  -3.5315  -3.3103  -3.1496
    -3.0435  -1.8709  -0.5970   0.4603   2.1332   5.5018   8.4918   8.7789
    10.3822

     occupation numbers 
     1.0000   1.0000   1.0000   1.0000   1.0000   1.0000   1.0000   1.0000
     1.0000   1.0000   1.0000   1.0000   1.0000   1.0000   1.0000   1.0000
     1.0000   1.0000   1.0000   1.0000   1.0000   0.0000   0.0000   0.0000
     0.0000

          k = 0.0000 0.2000 0.2000 (  3587 PWs)   bands (ev):

   -27.8664 -24.8690 -23.6091 -19.6719 -17.5125 -13.4321  -9.8903  -9.2354
    -7.7707  -6.8904  -5.4800  -5.2548  -3.9410  -3.3177  -3.1496  -3.0907
    -2.5214  -2.0586  -0.5653   0.2888   1.6328   5.7357   7.8033   8.6145
    10.1432

     occupation numbers 
     1.0000   1.0000   1.0000   1.0000   1.0000   1.0000   1.0000   1.0000
     1.0000   1.0000   1.0000   1.0000   1.0000   1.0000   1.0000   1.0000
     1.0000   1.0000   1.0000   1.0000   1.0000   0.0000   0.0000   0.0000
     0.0000

          k = 0.0000 0.2000 0.4000 (  3570 PWs)   bands (ev):

   -27.8560 -24.7743 -23.7630 -19.6687 -17.5091 -13.3946  -9.6217  -9.1395
    -8.0473  -6.5143  -5.5092  -5.4485  -3.7980  -3.5230  -3.2298  -3.1202
    -3.0270  -1.9945  -0.5543   0.2337   1.6458   5.6448   8.5625   8.8844
    10.5119

     occupation numbers 
     1.0000   1.0000   1.0000   1.0000   1.0000   1.0000   1.0000   1.0000
     1.0000   1.0000   1.0000   1.0000   1.0000   1.0000   1.0000   1.0000
     1.0000   1.0000   1.0000   1.0000   1.0000   0.0000   0.0000   0.0000
     0.0000

          k = 0.0000 0.4000 0.4000 (  3570 PWs)   bands (ev):

   -27.8332 -24.8197 -23.7612 -19.5431 -17.7335 -13.3117  -9.5317  -9.1916
    -8.1269  -6.4479  -5.4613  -4.6708  -4.0945  -3.5046  -3.1007  -3.0635
    -2.9468  -2.3836  -0.5025  -0.1294   0.9168   5.8489   8.4891   9.4274
    10.5124

     occupation numbers 
     1.0000   1.0000   1.0000   1.0000   1.0000   1.0000   1.0000   1.0000
     1.0000   1.0000   1.0000   1.0000   1.0000   1.0000   1.0000   1.0000
     1.0000   1.0000   1.0000   1.0000   1.0000   0.0000   0.0000   0.0000
     0.0000

          k = 0.2000 0.2000 0.2000 (  3587 PWs)   bands (ev):

   -27.8528 -24.8620 -23.6078 -19.8019 -17.5998 -12.9615  -9.9565  -9.0359
    -7.8009  -7.0591  -5.6685  -5.3083  -3.9468  -3.6590  -3.2970  -2.7663
    -2.4414  -2.2540  -0.3551   0.2695   1.6634   5.5895   7.9873   8.8369
    10.1110

     occupation numbers 
     1.0000   1.0000   1.0000   1.0000   1.0000   1.0000   1.0000   1.0000
     1.0000   1.0000   1.0000   1.0000   1.0000   1.0000   1.0000   1.0000
     1.0000   1.0000   1.0000   1.0000   1.0000   0.0000   0.0000   0.0000
     0.0000

          k = 0.2000 0.2000 0.4000 (  3576 PWs)   bands (ev):

   -27.8424 -24.7671 -23.7616 -19.7987 -17.5967 -12.9125  -9.7347  -8.9167
    -8.0691  -6.7214  -5.6207  -5.5079  -3.9632  -3.8032  -3.2104  -3.1088
    -2.6177  -2.3166  -0.3204   0.2118   1.6838   5.4746   8.7406   9.1007
    10.5566

     occupation numbers 
     1.0000   1.0000   1.0000   1.0000   1.0000   1.0000   1.0000   1.0000
     1.0000   1.0000   1.0000   1.0000   1.0000   1.0000   1.0000   1.0000
     1.0000   1.0000   1.0000   1.0000   1.0000   0.0000   0.0000   0.0000
     0.0000

          k = 0.2000 0.4000 0.4000 (  3552 PWs)   bands (ev):

   -27.8199 -24.8119 -23.7598 -19.6726 -17.8213 -12.8311  -9.7000  -8.8836
    -8.1419  -6.6285  -5.4993  -5.0687  -3.9991  -3.8834  -3.0571  -2.9575
    -2.6716  -2.5224  -0.5447  -0.1482   1.0886   5.7029   8.6878   9.5808
    10.6468

     occupation numbers 
     1.0000   1.0000   1.0000   1.0000   1.0000   1.0000   1.0000   1.0000
     1.0000   1.0000   1.0000   1.0000   1.0000   1.0000   1.0000   1.0000
     1.0000   1.0000   1.0000   1.0000   1.0000   0.0000   0.0000   0.0000
     0.0000

          k = 0.4000 0.4000 0.4000 (  3566 PWs)   bands (ev):

   -27.7981 -24.7999 -23.7576 -19.8710 -17.9392 -11.9029  -9.9489  -8.5618
    -8.1640  -7.1494  -5.5772  -5.1467  -4.1640  -3.9100  -3.5465  -3.0114
    -2.6683  -2.0883  -0.7369  -0.1134   1.4342   5.4897   8.9230  10.0091
    10.7066

     occupation numbers 
     1.0000   1.0000   1.0000   1.0000   1.0000   1.0000   1.0000   1.0000
     1.0000   1.0000   1.0000   1.0000   1.0000   1.0000   1.0000   1.0000
     1.0000   1.0000   1.0000   1.0000   1.0000   0.0000   0.0000   0.0000
     0.0000

          k = 0.2000 0.0000 0.0000 (  3595 PWs)   bands (ev):

   -27.8732 -24.8835 -23.5231 -19.8732 -17.4626 -13.0462 -10.1238  -9.1472
    -7.5535  -7.3081  -5.8006  -5.2715  -3.9981  -3.5286  -3.4616  -2.7152
    -2.3057  -2.0544  -0.2941   0.5350   2.1193   5.5419   7.2829   8.5749
     9.7717

     occupation numbers 
     1.0000   1.0000   1.0000   1.0000   1.0000   1.0000   1.0000   1.0000
     1.0000   1.0000   1.0000   1.0000   1.0000   1.0000   1.0000   1.0000
     1.0000   1.0000   1.0000   1.0000   1.0000   0.0000   0.0000   0.0000
     0.0000

          k = 0.0000 0.2000 0.0000 (  3595 PWs)   bands (ev):

   -27.8727 -24.9176 -23.5234 -19.6740 -17.5148 -13.4565 -10.0510  -9.2645
    -7.6017  -7.0832  -5.4866  -5.1543  -4.0109  -3.2351  -3.1437  -3.0530
    -2.1467  -2.1241  -0.5737   0.3246   1.6239   5.8028   7.3670   8.4885
     9.9373

     occupation numbers 
     1.0000   1.0000   1.0000   1.0000   1.0000   1.0000   1.0000   1.0000
     1.0000   1.0000   1.0000   1.0000   1.0000   1.0000   1.0000   1.0000
     1.0000   1.0000   1.0000   1.0000   1.0000   0.0000   0.0000   0.0000
     0.0000

          k = 0.4000 0.0000 0.0000 (  3551 PWs)   bands (ev):

   -27.8504 -24.8739 -23.5210 -20.0722 -17.5750 -12.1718 -10.2579  -8.9226
    -7.8908  -7.5708  -5.5212  -5.3842  -4.3360  -3.6887  -3.6112  -2.8073
    -2.5255  -1.8404   0.0432   0.5648   2.1641   5.3448   7.8640   8.6135
     9.2163

     occupation numbers 
     1.0000   1.0000   1.0000   1.0000   1.0000   1.0000   1.0000   1.0000
     1.0000   1.0000   1.0000   1.0000   1.0000   1.0000   1.0000   1.0000
     1.0000   1.0000   1.0000   1.0000   1.0000   0.0000   0.0000   0.0000
     0.0000

          k = 0.0000 0.4000 0.0000 (  3551 PWs)   bands (ev):

   -27.8489 -24.9634 -23.5216 -19.5483 -17.7397 -13.3740 -10.0226  -9.2559
    -7.6905  -7.0047  -5.0942  -4.7454  -4.2720  -3.1575  -3.0566  -2.9417
    -2.5699  -2.1222  -0.5124  -0.0037   0.8806   6.0184   7.9729   8.5605
     9.6495

     occupation numbers 
     1.0000   1.0000   1.0000   1.0000   1.0000   1.0000   1.0000   1.0000
     1.0000   1.0000   1.0000   1.0000   1.0000   1.0000   1.0000   1.0000
     1.0000   1.0000   1.0000   1.0000   1.0000   0.0000   0.0000   0.0000
     0.0000

          k = 0.0000-0.2000 0.2000 (  3587 PWs)   bands (ev):

   -27.8663 -24.8693 -23.6088 -19.6719 -17.5126 -13.4320  -9.8901  -9.2357
    -7.7764  -6.8842  -5.4795  -5.2532  -3.9424  -3.3117  -3.1498  -3.0990
    -2.5218  -2.0576  -0.5649   0.2889   1.6327   5.7364   7.8008   8.6132
    10.1584

     occupation numbers 
     1.0000   1.0000   1.0000   1.0000   1.0000   1.0000   1.0000   1.0000
     1.0000   1.0000   1.0000   1.0000   1.0000   1.0000   1.0000   1.0000
     1.0000   1.0000   1.0000   1.0000   1.0000   0.0000   0.0000   0.0000
     0.0000

          k = 0.2000 0.0000-0.2000 (  3587 PWs)   bands (ev):

   -27.8666 -24.8353 -23.6083 -19.8712 -17.4609 -13.0144  -9.9953  -9.1006
    -7.7455  -7.0971  -5.7816  -5.3588  -3.9491  -3.6768  -3.3852  -2.8342
    -2.4144  -2.1958  -0.2695   0.5073   2.1277   5.4628   7.7387   8.6813
    10.0361

     occupation numbers 
     1.0000   1.0000   1.0000   1.0000   1.0000   1.0000   1.0000   1.0000
     1.0000   1.0000   1.0000   1.0000   1.0000   1.0000   1.0000   1.0000
     1.0000   1.0000   1.0000   1.0000   1.0000   0.0000   0.0000   0.0000
     0.0000

          k =-0.2000 0.0000-0.2000 (  3587 PWs)   bands (ev):

   -27.8666 -24.8352 -23.6085 -19.8710 -17.4608 -13.0146  -9.9996  -9.0924
    -7.7545  -7.0955  -5.7762  -5.3561  -3.9491  -3.6858  -3.3851  -2.8212
    -2.4189  -2.2012  -0.2683   0.5074   2.1278   5.4560   7.7549   8.6857
    10.0316

     occupation numbers 
     1.0000   1.0000   1.0000   1.0000   1.0000   1.0000   1.0000   1.0000
     1.0000   1.0000   1.0000   1.0000   1.0000   1.0000   1.0000   1.0000
     1.0000   1.0000   1.0000   1.0000   1.0000   0.0000   0.0000   0.0000
     0.0000

          k = 0.2000-0.2000 0.0000 (  3587 PWs)   bands (ev):

   -27.8589 -24.9116 -23.5221 -19.8067 -17.5895 -12.9963 -10.1274  -9.1404
    -7.6049  -7.2413  -5.3101  -5.2514  -4.2325  -3.5840  -3.4430  -2.6812
    -2.3696  -2.0505  -0.2613   0.3488   1.6452   5.7017   7.6498   8.4463
     9.8283

     occupation numbers 
     1.0000   1.0000   1.0000   1.0000   1.0000   1.0000   1.0000   1.0000
     1.0000   1.0000   1.0000   1.0000   1.0000   1.0000   1.0000   1.0000
     1.0000   1.0000   1.0000   1.0000   1.0000   0.0000   0.0000   0.0000
     0.0000

          k =-0.2000-0.2000 0.0000 (  3587 PWs)   bands (ev):

   -27.8591 -24.9108 -23.5221 -19.8040 -17.6018 -12.9936 -10.0878  -9.0833
    -7.6149  -7.2600  -5.6895  -5.2180  -4.0126  -3.4928  -3.3780  -2.6432
    -2.4152  -2.0370  -0.3789   0.3067   1.6492   5.6782   7.5510   8.7296
     9.8576

     occupation numbers 
     1.0000   1.0000   1.0000   1.0000   1.0000   1.0000   1.0000   1.0000
     1.0000   1.0000   1.0000   1.0000   1.0000   1.0000   1.0000   1.0000
     1.0000   1.0000   1.0000   1.0000   1.0000   0.0000   0.0000   0.0000
     0.0000

          k = 0.0000-0.2000 0.4000 (  3570 PWs)   bands (ev):

   -27.8560 -24.7745 -23.7627 -19.6687 -17.5091 -13.3945  -9.6213  -9.1398
    -8.0504  -6.5108  -5.5060  -5.4504  -3.7968  -3.5226  -3.2430  -3.1177
    -3.0208  -1.9942  -0.5540   0.2338   1.6458   5.6449   8.5627   8.8809
    10.5142

     occupation numbers 
     1.0000   1.0000   1.0000   1.0000   1.0000   1.0000   1.0000   1.0000
     1.0000   1.0000   1.0000   1.0000   1.0000   1.0000   1.0000   1.0000
     1.0000   1.0000   1.0000   1.0000   1.0000   0.0000   0.0000   0.0000
     0.0000

          k = 0.2000 0.0000-0.4000 (  3570 PWs)   bands (ev):

   -27.8559 -24.7404 -23.7624 -19.8677 -17.4581 -12.9664  -9.7927  -8.9634
    -8.0116  -6.7752  -5.7206  -5.5447  -3.9804  -3.8263  -3.3062  -3.1468
    -2.6786  -2.1924  -0.2325   0.4643   2.1403   5.3481   8.6503   8.8910
    10.4337

     occupation numbers 
     1.0000   1.0000   1.0000   1.0000   1.0000   1.0000   1.0000   1.0000
     1.0000   1.0000   1.0000   1.0000   1.0000   1.0000   1.0000   1.0000
     1.0000   1.0000   1.0000   1.0000   1.0000   0.0000   0.0000   0.0000
     0.0000

          k =-0.2000 0.0000-0.4000 (  3570 PWs)   bands (ev):

   -27.8559 -24.7403 -23.7625 -19.8676 -17.4581 -12.9665  -9.7961  -8.9559
    -8.0178  -6.7772  -5.7123  -5.5444  -3.9854  -3.8295  -3.3059  -3.1409
    -2.6811  -2.1931  -0.2320   0.4645   2.1404   5.3452   8.6583   8.9004
    10.4377

     occupation numbers 
     1.0000   1.0000   1.0000   1.0000   1.0000   1.0000   1.0000   1.0000
     1.0000   1.0000   1.0000   1.0000   1.0000   1.0000   1.0000   1.0000
     1.0000   1.0000   1.0000   1.0000   1.0000   0.0000   0.0000   0.0000
     0.0000

          k = 0.4000-0.2000 0.0000 (  3570 PWs)   bands (ev):

   -27.8365 -24.9012 -23.5200 -20.0045 -17.7072 -12.1274 -10.2350  -8.8746
    -7.8125  -7.6202  -5.3639  -5.1987  -4.4174  -3.7581  -3.6132  -2.8519
    -2.4858  -1.8337  -0.0706   0.3715   1.7614   5.5007   8.1762   8.6326
     9.4481

     occupation numbers 
     1.0000   1.0000   1.0000   1.0000   1.0000   1.0000   1.0000   1.0000
     1.0000   1.0000   1.0000   1.0000   1.0000   1.0000   1.0000   1.0000
     1.0000   1.0000   1.0000   1.0000   1.0000   0.0000   0.0000   0.0000
     0.0000

          k =-0.4000-0.2000 0.0000 (  3570 PWs)   bands (ev):

   -27.8367 -24.9006 -23.5200 -20.0033 -17.7134 -12.1380 -10.1727  -8.8689
    -7.8212  -7.6266  -5.4976  -5.3447  -4.1695  -3.7397  -3.6326  -2.8182
    -2.4768  -1.8174  -0.1400   0.3415   1.7593   5.4886   8.0402   8.9380
     9.4160

     occupation numbers 
     1.0000   1.0000   1.0000   1.0000   1.0000   1.0000   1.0000   1.0000
     1.0000   1.0000   1.0000   1.0000   1.0000   1.0000   1.0000   1.0000
     1.0000   1.0000   1.0000   1.0000   1.0000   0.0000   0.0000   0.0000
     0.0000

          k = 0.0000 0.4000 0.2000 (  3570 PWs)   bands (ev):

   -27.8429 -24.9145 -23.6075 -19.5463 -17.7373 -13.3494  -9.8487  -9.2403
    -7.8509  -6.8238  -5.2038  -4.7141  -4.2145  -3.2421  -3.0741  -3.0002
    -2.5689  -2.3860  -0.5086  -0.0533   0.8955   5.9454   8.2043   8.8893
     9.8889

     occupation numbers 
     1.0000   1.0000   1.0000   1.0000   1.0000   1.0000   1.0000   1.0000
     1.0000   1.0000   1.0000   1.0000   1.0000   1.0000   1.0000   1.0000
     1.0000   1.0000   1.0000   1.0000   1.0000   0.0000   0.0000   0.0000
     0.0000

          k = 0.0000 0.4000-0.2000 (  3570 PWs)   bands (ev):

   -27.8429 -24.9147 -23.6073 -19.5463 -17.7373 -13.3493  -9.8486  -9.2404
    -7.8546  -6.8195  -5.2025  -4.7144  -4.2155  -3.2195  -3.1094  -2.9937
    -2.5612  -2.3885  -0.5084  -0.0534   0.8955   5.9458   8.2031   8.8799
     9.9204

     occupation numbers 
     1.0000   1.0000   1.0000   1.0000   1.0000   1.0000   1.0000   1.0000
     1.0000   1.0000   1.0000   1.0000   1.0000   1.0000   1.0000   1.0000
     1.0000   1.0000   1.0000   1.0000   1.0000   0.0000   0.0000   0.0000
     0.0000

          k = 0.2000 0.4000 0.0000 (  3570 PWs)   bands (ev):

   -27.8356 -24.9561 -23.5204 -19.6778 -17.8269 -12.9138 -10.0743  -9.0351
    -7.6989  -7.1607  -5.1740  -5.1609  -4.2130  -3.3830  -3.1750  -2.7376
    -2.5533  -2.0180  -0.5831  -0.0185   1.0333   5.8985   8.0974   8.9131
     9.7466

     occupation numbers 
     1.0000   1.0000   1.0000   1.0000   1.0000   1.0000   1.0000   1.0000
     1.0000   1.0000   1.0000   1.0000   1.0000   1.0000   1.0000   1.0000
     1.0000   1.0000   1.0000   1.0000   1.0000   0.0000   0.0000   0.0000
     0.0000

          k =-0.2000 0.4000 0.0000 (  3570 PWs)   bands (ev):

   -27.8355 -24.9566 -23.5204 -19.6800 -17.8192 -12.9146 -10.0974  -9.0739
    -7.6933  -7.1441  -5.1901  -4.6641  -4.5107  -3.5691  -3.3523  -2.5825
    -2.5546  -2.0291  -0.4966   0.0099   1.0264   5.9155   8.2351   8.6425
     9.6826

     occupation numbers 
     1.0000   1.0000   1.0000   1.0000   1.0000   1.0000   1.0000   1.0000
     1.0000   1.0000   1.0000   1.0000   1.0000   1.0000   1.0000   1.0000
     1.0000   1.0000   1.0000   1.0000   1.0000   0.0000   0.0000   0.0000
     0.0000

          k = 0.4000 0.0000 0.2000 (  3570 PWs)   bands (ev):

   -27.8438 -24.8256 -23.6062 -20.0699 -17.5739 -12.1083 -10.2066  -8.8544
    -7.9445  -7.4914  -5.4975  -5.4465  -4.2977  -3.8702  -3.5188  -2.8880
    -2.6220  -2.0138   0.0756   0.5376   2.1817   5.2378   8.2837   8.8081
     9.4989

     occupation numbers 
     1.0000   1.0000   1.0000   1.0000   1.0000   1.0000   1.0000   1.0000
     1.0000   1.0000   1.0000   1.0000   1.0000   1.0000   1.0000   1.0000
     1.0000   1.0000   1.0000   1.0000   1.0000   0.0000   0.0000   0.0000
     0.0000

          k = 0.4000 0.0000-0.2000 (  3570 PWs)   bands (ev):

   -27.8438 -24.8256 -23.6061 -20.0700 -17.5740 -12.1083 -10.2038  -8.8628
    -7.9350  -7.4928  -5.5006  -5.4488  -4.2972  -3.8659  -3.5213  -2.8913
    -2.6187  -2.0125   0.0750   0.5375   2.1815   5.2413   8.2716   8.7951
     9.5194

     occupation numbers 
     1.0000   1.0000   1.0000   1.0000   1.0000   1.0000   1.0000   1.0000
     1.0000   1.0000   1.0000   1.0000   1.0000   1.0000   1.0000   1.0000
     1.0000   1.0000   1.0000   1.0000   1.0000   0.0000   0.0000   0.0000
     0.0000

          k = 0.0000-0.4000 0.4000 (  3570 PWs)   bands (ev):

   -27.8332 -24.8198 -23.7610 -19.5431 -17.7336 -13.3117  -9.5313  -9.1917
    -8.1291  -6.4451  -5.4607  -4.6715  -4.0933  -3.5043  -3.1215  -3.0506
    -2.9415  -2.3834  -0.5023  -0.1295   0.9168   5.8491   8.4892   9.4191
    10.5490

     occupation numbers 
     1.0000   1.0000   1.0000   1.0000   1.0000   1.0000   1.0000   1.0000
     1.0000   1.0000   1.0000   1.0000   1.0000   1.0000   1.0000   1.0000
     1.0000   1.0000   1.0000   1.0000   1.0000   0.0000   0.0000   0.0000
     0.0000

          k = 0.4000 0.0000-0.4000 (  3570 PWs)   bands (ev):

   -27.8332 -24.7304 -23.7601 -20.0664 -17.5722 -12.0118 -10.1163  -8.7354
    -8.0610  -7.2735  -5.6208  -5.3822  -4.2709  -4.1649  -3.4137  -3.1850
    -2.6670  -2.2085   0.1227   0.4947   2.2082   5.0945   8.7782   9.4536
    10.2066

     occupation numbers 
     1.0000   1.0000   1.0000   1.0000   1.0000   1.0000   1.0000   1.0000
     1.0000   1.0000   1.0000   1.0000   1.0000   1.0000   1.0000   1.0000
     1.0000   1.0000   1.0000   1.0000   1.0000   0.0000   0.0000   0.0000
     0.0000

          k =-0.4000 0.0000-0.4000 (  3570 PWs)   bands (ev):

   -27.8332 -24.7304 -23.7602 -20.0663 -17.5721 -12.0119 -10.1181  -8.7286
    -8.0672  -7.2746  -5.6184  -5.3788  -4.2754  -4.1644  -3.4121  -3.1851
    -2.6685  -2.2083   0.1230   0.4948   2.2083   5.0930   8.7790   9.4838
    10.1820

     occupation numbers 
     1.0000   1.0000   1.0000   1.0000   1.0000   1.0000   1.0000   1.0000
     1.0000   1.0000   1.0000   1.0000   1.0000   1.0000   1.0000   1.0000
     1.0000   1.0000   1.0000   1.0000   1.0000   0.0000   0.0000   0.0000
     0.0000

          k = 0.4000-0.4000 0.0000 (  3570 PWs)   bands (ev):

   -27.8137 -24.9450 -23.5183 -19.8773 -17.9393 -12.0678 -10.1436  -8.7866
    -7.7146  -7.6726  -5.3134  -5.0477  -4.3526  -3.7734  -3.5124  -2.7719
    -2.4061  -1.8010  -0.7121   0.0344   1.3449   5.7180   8.4499   9.2386
     9.7784

     occupation numbers 
     1.0000   1.0000   1.0000   1.0000   1.0000   1.0000   1.0000   1.0000
     1.0000   1.0000   1.0000   1.0000   1.0000   1.0000   1.0000   1.0000
     1.0000   1.0000   1.0000   1.0000   1.0000   0.0000   0.0000   0.0000
     0.0000

          k =-0.4000-0.4000 0.0000 (  3570 PWs)   bands (ev):

   -27.8137 -24.9446 -23.5183 -19.8763 -17.9432 -12.0748 -10.1066  -8.7777
    -7.7187  -7.6775  -5.3035  -5.2902  -4.1630  -3.7369  -3.5237  -2.7372
    -2.4011  -1.7879  -0.7727   0.0140   1.3411   5.7089   8.3784   9.4177
     9.8796

     occupation numbers 
     1.0000   1.0000   1.0000   1.0000   1.0000   1.0000   1.0000   1.0000
     1.0000   1.0000   1.0000   1.0000   1.0000   1.0000   1.0000   1.0000
     1.0000   1.0000   1.0000   1.0000   1.0000   0.0000   0.0000   0.0000
     0.0000

          k =-0.2000-0.2000 0.2000 (  3587 PWs)   bands (ev):

   -27.8527 -24.8624 -23.6073 -19.8021 -17.5999 -12.9612  -9.9524  -9.0445
    -7.7971  -7.0556  -5.6728  -5.3087  -3.9485  -3.6539  -3.2949  -2.7778
    -2.4346  -2.2531  -0.3555   0.2693   1.6632   5.5963   7.9715   8.8318
    10.1289

     occupation numbers 
     1.0000   1.0000   1.0000   1.0000   1.0000   1.0000   1.0000   1.0000
     1.0000   1.0000   1.0000   1.0000   1.0000   1.0000   1.0000   1.0000
     1.0000   1.0000   1.0000   1.0000   1.0000   0.0000   0.0000   0.0000
     0.0000

          k =-0.2000 0.2000-0.2000 (  3587 PWs)   bands (ev):

   -27.8525 -24.8633 -23.6075 -19.8044 -17.5877 -12.9644 -10.0001  -9.0887
    -7.7948  -7.0375  -5.3509  -5.2771  -4.1815  -3.6235  -3.4910  -2.7851
    -2.4325  -2.2305  -0.2433   0.3134   1.6580   5.6224   8.0753   8.6033
    10.0456

     occupation numbers 
     1.0000   1.0000   1.0000   1.0000   1.0000   1.0000   1.0000   1.0000
     1.0000   1.0000   1.0000   1.0000   1.0000   1.0000   1.0000   1.0000
     1.0000   1.0000   1.0000   1.0000   1.0000   0.0000   0.0000   0.0000
     0.0000

          k = 0.2000-0.2000-0.2000 (  3587 PWs)   bands (ev):

   -27.8526 -24.8630 -23.6076 -19.8046 -17.5878 -12.9642  -9.9957  -9.0976
    -7.7792  -7.0458  -5.3572  -5.2812  -4.1814  -3.6130  -3.4906  -2.7964
    -2.4261  -2.2278  -0.2444   0.3131   1.6579   5.6278   8.0603   8.6024
    10.0409

     occupation numbers 
     1.0000   1.0000   1.0000   1.0000   1.0000   1.0000   1.0000   1.0000
     1.0000   1.0000   1.0000   1.0000   1.0000   1.0000   1.0000   1.0000
     1.0000   1.0000   1.0000   1.0000   1.0000   0.0000   0.0000   0.0000
     0.0000

          k =-0.2000-0.2000 0.4000 (  3576 PWs)   bands (ev):

   -27.8424 -24.7674 -23.7612 -19.7988 -17.5968 -12.9123  -9.7310  -8.9250
    -8.0651  -6.7171  -5.6313  -5.5032  -3.9566  -3.8060  -3.2202  -3.1013
    -2.6170  -2.3168  -0.3205   0.2117   1.6836   5.4776   8.7330   9.0916
    10.5492

     occupation numbers 
     1.0000   1.0000   1.0000   1.0000   1.0000   1.0000   1.0000   1.0000
     1.0000   1.0000   1.0000   1.0000   1.0000   1.0000   1.0000   1.0000
     1.0000   1.0000   1.0000   1.0000   1.0000   0.0000   0.0000   0.0000
     0.0000

          k =-0.2000 0.2000-0.4000 (  3576 PWs)   bands (ev):

   -27.8422 -24.7683 -23.7614 -19.8010 -17.5849 -12.9159  -9.7893  -8.9567
    -8.0623  -6.7001  -5.5532  -5.2244  -4.0864  -3.9061  -3.4084  -3.1049
    -2.6573  -2.2338  -0.2174   0.2583   1.6772   5.5214   8.5941   9.1122
    10.4979

     occupation numbers 
     1.0000   1.0000   1.0000   1.0000   1.0000   1.0000   1.0000   1.0000
     1.0000   1.0000   1.0000   1.0000   1.0000   1.0000   1.0000   1.0000
     1.0000   1.0000   1.0000   1.0000   1.0000   0.0000   0.0000   0.0000
     0.0000

          k = 0.2000-0.2000-0.4000 (  3576 PWs)   bands (ev):

   -27.8422 -24.7681 -23.7615 -19.8011 -17.5850 -12.9158  -9.7857  -8.9655
    -8.0521  -6.7020  -5.5592  -5.2290  -4.0894  -3.8940  -3.4028  -3.1141
    -2.6536  -2.2347  -0.2179   0.2581   1.6772   5.5239   8.5888   9.1043
    10.4910

     occupation numbers 
     1.0000   1.0000   1.0000   1.0000   1.0000   1.0000   1.0000   1.0000
     1.0000   1.0000   1.0000   1.0000   1.0000   1.0000   1.0000   1.0000
     1.0000   1.0000   1.0000   1.0000   1.0000   0.0000   0.0000   0.0000
     0.0000

          k = 0.4000-0.2000 0.2000 (  3576 PWs)   bands (ev):

   -27.8301 -24.8527 -23.6052 -20.0022 -17.7060 -12.0620 -10.1821  -8.8051
    -7.9324  -7.4777  -5.4471  -5.1555  -4.3830  -3.8219  -3.6433  -2.8879
    -2.6183  -1.9992  -0.0483   0.3364   1.7869   5.4032   8.4934   8.9251
     9.6939

     occupation numbers 
     1.0000   1.0000   1.0000   1.0000   1.0000   1.0000   1.0000   1.0000
     1.0000   1.0000   1.0000   1.0000   1.0000   1.0000   1.0000   1.0000
     1.0000   1.0000   1.0000   1.0000   1.0000   0.0000   0.0000   0.0000
     0.0000

          k =-0.4000-0.2000-0.2000 (  3576 PWs)   bands (ev):

   -27.8303 -24.8518 -23.6055 -20.0011 -17.7121 -12.0727 -10.1187  -8.8005
    -7.9333  -7.4924  -5.4682  -5.4161  -4.1359  -3.8411  -3.6123  -2.8811
    -2.5964  -1.9790  -0.1151   0.3050   1.7851   5.3852   8.4179   9.0784
     9.7416

     occupation numbers 
     1.0000   1.0000   1.0000   1.0000   1.0000   1.0000   1.0000   1.0000
     1.0000   1.0000   1.0000   1.0000   1.0000   1.0000   1.0000   1.0000
     1.0000   1.0000   1.0000   1.0000   1.0000   0.0000   0.0000   0.0000
     0.0000

          k = 0.4000 0.2000-0.2000 (  3576 PWs)   bands (ev):

   -27.8303 -24.8522 -23.6051 -20.0012 -17.7122 -12.0726 -10.1161  -8.8088
    -7.9306  -7.4875  -5.4726  -5.4156  -4.1286  -3.8524  -3.6067  -2.8759
    -2.6018  -1.9786  -0.1150   0.3048   1.7847   5.3894   8.4066   9.0730
     9.7658

     occupation numbers 
     1.0000   1.0000   1.0000   1.0000   1.0000   1.0000   1.0000   1.0000
     1.0000   1.0000   1.0000   1.0000   1.0000   1.0000   1.0000   1.0000
     1.0000   1.0000   1.0000   1.0000   1.0000   0.0000   0.0000   0.0000
     0.0000

          k =-0.4000 0.2000 0.2000 (  3576 PWs)   bands (ev):

   -27.8302 -24.8524 -23.6054 -20.0023 -17.7061 -12.0619 -10.1794  -8.8150
    -7.9123  -7.4882  -5.4488  -5.1597  -4.3880  -3.8037  -3.6541  -2.8949
    -2.6106  -1.9976  -0.0491   0.3363   1.7869   5.4053   8.4893   8.8975
     9.7139

     occupation numbers 
     1.0000   1.0000   1.0000   1.0000   1.0000   1.0000   1.0000   1.0000
     1.0000   1.0000   1.0000   1.0000   1.0000   1.0000   1.0000   1.0000
     1.0000   1.0000   1.0000   1.0000   1.0000   0.0000   0.0000   0.0000
     0.0000

          k =-0.2000 0.4000 0.2000 (  3576 PWs)   bands (ev):

   -27.8295 -24.9076 -23.6061 -19.6780 -17.8172 -12.8816  -9.9585  -9.0387
    -7.8522  -6.9651  -5.2932  -4.6083  -4.4854  -3.5631  -3.4536  -2.6927
    -2.5247  -2.2699  -0.4892  -0.0401   1.0497   5.8406   8.3817   9.0813
     9.8494

     occupation numbers 
     1.0000   1.0000   1.0000   1.0000   1.0000   1.0000   1.0000   1.0000
     1.0000   1.0000   1.0000   1.0000   1.0000   1.0000   1.0000   1.0000
     1.0000   1.0000   1.0000   1.0000   1.0000   0.0000   0.0000   0.0000
     0.0000

          k =-0.2000-0.4000-0.2000 (  3576 PWs)   bands (ev):

   -27.8297 -24.9070 -23.6063 -19.6757 -17.8247 -12.8810  -9.9375  -8.9925
    -7.8702  -6.9761  -5.2742  -5.1297  -4.1388  -3.5530  -3.1054  -2.7636
    -2.6268  -2.2651  -0.5683  -0.0696   1.0561   5.8138   8.3626   9.1378
    10.0618

     occupation numbers 
     1.0000   1.0000   1.0000   1.0000   1.0000   1.0000   1.0000   1.0000
     1.0000   1.0000   1.0000   1.0000   1.0000   1.0000   1.0000   1.0000
     1.0000   1.0000   1.0000   1.0000   1.0000   0.0000   0.0000   0.0000
     0.0000

          k = 0.2000 0.4000-0.2000 (  3576 PWs)   bands (ev):

   -27.8296 -24.9072 -23.6059 -19.6759 -17.8248 -12.8806  -9.9333  -9.0024
    -7.8629  -6.9754  -5.2802  -5.1262  -4.1469  -3.5518  -3.0897  -2.7688
    -2.6253  -2.2712  -0.5674  -0.0697   1.0557   5.8189   8.3533   9.1316
    10.0855

     occupation numbers 
     1.0000   1.0000   1.0000   1.0000   1.0000   1.0000   1.0000   1.0000
     1.0000   1.0000   1.0000   1.0000   1.0000   1.0000   1.0000   1.0000
     1.0000   1.0000   1.0000   1.0000   1.0000   0.0000   0.0000   0.0000
     0.0000

          k = 0.2000-0.4000 0.2000 (  3576 PWs)   bands (ev):

   -27.8295 -24.9077 -23.6061 -19.6778 -17.8171 -12.8819  -9.9629  -9.0285
    -7.8668  -6.9580  -5.2892  -4.6100  -4.4751  -3.5525  -3.4800  -2.6837
    -2.5340  -2.2645  -0.4894  -0.0399   1.0499   5.8365   8.3883   9.0747
     9.8769

     occupation numbers 
     1.0000   1.0000   1.0000   1.0000   1.0000   1.0000   1.0000   1.0000
     1.0000   1.0000   1.0000   1.0000   1.0000   1.0000   1.0000   1.0000
     1.0000   1.0000   1.0000   1.0000   1.0000   0.0000   0.0000   0.0000
     0.0000

          k =-0.2000-0.4000 0.4000 (  3552 PWs)   bands (ev):

   -27.8199 -24.8121 -23.7596 -19.6727 -17.8214 -12.8309  -9.6960  -8.8939
    -8.1352  -6.6260  -5.5042  -5.0678  -4.0149  -3.8700  -3.0383  -2.9673
    -2.6692  -2.5308  -0.5443  -0.1483   1.0884   5.7054   8.6836   9.5769
    10.6559

     occupation numbers 
     1.0000   1.0000   1.0000   1.0000   1.0000   1.0000   1.0000   1.0000
     1.0000   1.0000   1.0000   1.0000   1.0000   1.0000   1.0000   1.0000
     1.0000   1.0000   1.0000   1.0000   1.0000   0.0000   0.0000   0.0000
     0.0000

          k =-0.2000 0.4000-0.4000 (  3552 PWs)   bands (ev):

   -27.8198 -24.8126 -23.7597 -19.6745 -17.8140 -12.8323  -9.7327  -8.9107
    -8.1383  -6.6115  -5.5145  -4.5245  -4.3890  -3.8620  -3.4133  -3.0013
    -2.5749  -2.4044  -0.4775  -0.1167   1.0841   5.7348   8.5949   9.6701
    10.4478

     occupation numbers 
     1.0000   1.0000   1.0000   1.0000   1.0000   1.0000   1.0000   1.0000
     1.0000   1.0000   1.0000   1.0000   1.0000   1.0000   1.0000   1.0000
     1.0000   1.0000   1.0000   1.0000   1.0000   0.0000   0.0000   0.0000
     0.0000

          k = 0.2000-0.4000-0.4000 (  3552 PWs)   bands (ev):

   -27.8198 -24.8125 -23.7597 -19.6746 -17.8141 -12.8322  -9.7288  -8.9215
    -8.1273  -6.6136  -5.5190  -4.5221  -4.4036  -3.8488  -3.4040  -3.0097
    -2.5640  -2.4148  -0.4774  -0.1168   1.0839   5.7368   8.5917   9.6798
    10.4000

     occupation numbers 
     1.0000   1.0000   1.0000   1.0000   1.0000   1.0000   1.0000   1.0000
     1.0000   1.0000   1.0000   1.0000   1.0000   1.0000   1.0000   1.0000
     1.0000   1.0000   1.0000   1.0000   1.0000   0.0000   0.0000   0.0000
     0.0000

          k = 0.4000 0.2000-0.4000 (  3552 PWs)   bands (ev):

   -27.8200 -24.7568 -23.7589 -19.9977 -17.7101 -11.9732 -10.0231  -8.6755
    -8.1031  -7.2295  -5.5992  -5.3579  -4.2111  -4.0119  -3.5265  -3.1284
    -2.6895  -2.1606  -0.0772   0.2476   1.8233   5.2470   8.8799   9.6371
    10.3979

     occupation numbers 
     1.0000   1.0000   1.0000   1.0000   1.0000   1.0000   1.0000   1.0000
     1.0000   1.0000   1.0000   1.0000   1.0000   1.0000   1.0000   1.0000
     1.0000   1.0000   1.0000   1.0000   1.0000   0.0000   0.0000   0.0000
     0.0000

          k =-0.4000-0.2000-0.4000 (  3552 PWs)   bands (ev):

   -27.8200 -24.7565 -23.7593 -19.9976 -17.7100 -11.9733 -10.0249  -8.6687
    -8.1059  -7.2337  -5.5960  -5.3567  -4.2230  -4.0013  -3.5241  -3.1341
    -2.6872  -2.1604  -0.0774   0.2478   1.8236   5.2449   8.8836   9.6553
    10.3580

     occupation numbers 
     1.0000   1.0000   1.0000   1.0000   1.0000   1.0000   1.0000   1.0000
     1.0000   1.0000   1.0000   1.0000   1.0000   1.0000   1.0000   1.0000
     1.0000   1.0000   1.0000   1.0000   1.0000   0.0000   0.0000   0.0000
     0.0000

          k = 0.4000-0.2000 0.4000 (  3552 PWs)   bands (ev):

   -27.8198 -24.7574 -23.7590 -19.9986 -17.7041 -11.9626 -10.0904  -8.6701
    -8.1040  -7.2179  -5.6122  -5.0517  -4.3200  -4.1620  -3.5492  -3.1264
    -2.7058  -2.1829  -0.0149   0.2813   1.8258   5.2703   8.7747   9.7406
    10.3141

     occupation numbers 
     1.0000   1.0000   1.0000   1.0000   1.0000   1.0000   1.0000   1.0000
     1.0000   1.0000   1.0000   1.0000   1.0000   1.0000   1.0000   1.0000
     1.0000   1.0000   1.0000   1.0000   1.0000   0.0000   0.0000   0.0000
     0.0000

          k =-0.4000 0.2000 0.4000 (  3552 PWs)   bands (ev):

   -27.8198 -24.7571 -23.7592 -19.9987 -17.7041 -11.9627 -10.0886  -8.6795
    -8.0916  -7.2205  -5.6144  -5.0564  -4.3323  -4.1447  -3.5483  -3.1301
    -2.7025  -2.1832  -0.0154   0.2813   1.8257   5.2711   8.7740   9.7038
    10.3238

     occupation numbers 
     1.0000   1.0000   1.0000   1.0000   1.0000   1.0000   1.0000   1.0000
     1.0000   1.0000   1.0000   1.0000   1.0000   1.0000   1.0000   1.0000
     1.0000   1.0000   1.0000   1.0000   1.0000   0.0000   0.0000   0.0000
     0.0000

          k = 0.4000-0.4000 0.2000 (  3552 PWs)   bands (ev):

   -27.8076 -24.8959 -23.6038 -19.8751 -17.9378 -11.9995 -10.0874  -8.7160
    -7.9386  -7.4336  -5.4039  -4.9922  -4.3234  -3.7246  -3.6610  -2.7668
    -2.5820  -1.9461  -0.7018  -0.0145   1.3828   5.6293   8.6381   9.6537
     9.9290

     occupation numbers 
     1.0000   1.0000   1.0000   1.0000   1.0000   1.0000   1.0000   1.0000
     1.0000   1.0000   1.0000   1.0000   1.0000   1.0000   1.0000   1.0000
     1.0000   1.0000   1.0000   1.0000   1.0000   0.0000   0.0000   0.0000
     0.0000

          k =-0.4000-0.4000-0.2000 (  3552 PWs)   bands (ev):

   -27.8078 -24.8954 -23.6040 -19.8742 -17.9416 -12.0067 -10.0494  -8.7080
    -7.9384  -7.4431  -5.3942  -5.2427  -4.1190  -3.7552  -3.6000  -2.7622
    -2.5625  -1.9306  -0.7586  -0.0362   1.3787   5.6165   8.6248   9.5862
    10.2355

     occupation numbers 
     1.0000   1.0000   1.0000   1.0000   1.0000   1.0000   1.0000   1.0000
     1.0000   1.0000   1.0000   1.0000   1.0000   1.0000   1.0000   1.0000
     1.0000   1.0000   1.0000   1.0000   1.0000   0.0000   0.0000   0.0000
     0.0000

          k = 0.4000 0.4000-0.2000 (  3552 PWs)   bands (ev):

   -27.8077 -24.8956 -23.6037 -19.8743 -17.9417 -12.0064 -10.0471  -8.7179
    -7.9302  -7.4422  -5.3965  -5.2419  -4.1305  -3.7501  -3.5925  -2.7558
    -2.5701  -1.9318  -0.7579  -0.0361   1.3781   5.6198   8.6177   9.5918
    10.2612

     occupation numbers 
     1.0000   1.0000   1.0000   1.0000   1.0000   1.0000   1.0000   1.0000
     1.0000   1.0000   1.0000   1.0000   1.0000   1.0000   1.0000   1.0000
     1.0000   1.0000   1.0000   1.0000   1.0000   0.0000   0.0000   0.0000
     0.0000

          k =-0.4000 0.4000 0.2000 (  3552 PWs)   bands (ev):

   -27.8077 -24.8958 -23.6039 -19.8753 -17.9379 -11.9993 -10.0850  -8.7272
    -7.9186  -7.4431  -5.4053  -4.9937  -4.3334  -3.7238  -3.6483  -2.7755
    -2.5759  -1.9456  -0.7017  -0.0150   1.3826   5.6311   8.6367   9.6097
     9.9552

     occupation numbers 
     1.0000   1.0000   1.0000   1.0000   1.0000   1.0000   1.0000   1.0000
     1.0000   1.0000   1.0000   1.0000   1.0000   1.0000   1.0000   1.0000
     1.0000   1.0000   1.0000   1.0000   1.0000   0.0000   0.0000   0.0000
     0.0000

          k =-0.4000-0.4000 0.4000 (  3566 PWs)   bands (ev):

   -27.7981 -24.8001 -23.7573 -19.8710 -17.9393 -11.9027  -9.9472  -8.5721
    -8.1560  -7.1471  -5.5797  -5.1462  -4.1723  -3.9044  -3.5423  -3.0095
    -2.6709  -2.0892  -0.7367  -0.1134   1.4339   5.4915   8.9192  10.0134
    10.7091

     occupation numbers 
     1.0000   1.0000   1.0000   1.0000   1.0000   1.0000   1.0000   1.0000
     1.0000   1.0000   1.0000   1.0000   1.0000   1.0000   1.0000   1.0000
     1.0000   1.0000   1.0000   1.0000   1.0000   0.0000   0.0000   0.0000
     0.0000

          k =-0.4000 0.4000-0.4000 (  3566 PWs)   bands (ev):

   -27.7980 -24.8004 -23.7574 -19.8718 -17.9356 -11.8957  -9.9888  -8.5669
    -8.1637  -7.1396  -5.5870  -4.8880  -4.2557  -4.0506  -3.5715  -3.0032
    -2.6831  -2.1053  -0.6860  -0.0903   1.4393   5.5076   8.8628  10.1226
    10.5807

     occupation numbers 
     1.0000   1.0000   1.0000   1.0000   1.0000   1.0000   1.0000   1.0000
     1.0000   1.0000   1.0000   1.0000   1.0000   1.0000   1.0000   1.0000
     1.0000   1.0000   1.0000   1.0000   1.0000   0.0000   0.0000   0.0000
     0.0000

          k = 0.4000-0.4000-0.4000 (  3566 PWs)   bands (ev):

   -27.7980 -24.8003 -23.7575 -19.8719 -17.9356 -11.8956  -9.9872  -8.5799
    -8.1485  -7.1419  -5.5890  -4.8891  -4.2763  -4.0299  -3.5661  -3.0092
    -2.6804  -2.1058  -0.6861  -0.0906   1.4393   5.5085   8.8617  10.1123
    10.5411

     occupation numbers 
     1.0000   1.0000   1.0000   1.0000   1.0000   1.0000   1.0000   1.0000
     1.0000   1.0000   1.0000   1.0000   1.0000   1.0000   1.0000   1.0000
     1.0000   1.0000   1.0000   1.0000   1.0000   0.0000   0.0000   0.0000
     0.0000

     the Fermi energy is     3.8975 ev

!    total energy              =    -299.11659090 Ry
     total all-electron energy =     -1053.576724 Ry
     estimated scf accuracy    <       0.00000073 Ry
     smearing contrib. (-TS)   =       0.00000000 Ry
     internal energy E=F+TS    =    -299.11659090 Ry

     The total energy is F=E-TS. E is the sum of the following terms:
     one-electron contribution =    -196.15956688 Ry
     hartree contribution      =     118.32300340 Ry
     xc contribution           =     -53.86143164 Ry
     ewald contribution        =    -102.34491307 Ry
     one-center paw contrib.   =     -65.07368270 Ry
      -> PAW hartree energy AE =     205.64494394 Ry
      -> PAW hartree energy PS =    -205.48341578 Ry
      -> PAW xc energy AE      =    -118.24240323 Ry
      -> PAW xc energy PS      =      53.00719236 Ry
      -> total E_H with PAW    =     118.48453156 Ry
      -> total E_XC with PAW   =    -119.09664250 Ry

     convergence has been achieved in  10 iterations

     Forces acting on atoms (cartesian axes, Ry/au):

     atom    1 type  4   force =     0.45550918    0.10407924   -0.00596219
     atom    2 type  4   force =     0.07392173    0.03253125    0.01231068
     atom    3 type  4   force =     0.06978920    0.03141785   -0.00931802
     atom    4 type  3   force =    -0.36100428   -0.12576838    0.00595335
     atom    5 type  3   force =    -0.15764638    0.04198101    0.00082219
     atom    6 type  1   force =     0.01117105   -0.13216430    0.00204611
     atom    7 type  1   force =     0.11694187    0.05295075   -0.00765547
     atom    8 type  2   force =    -0.20868236   -0.00502743    0.00180335
     The non-local contrib.  to forces
     atom    1 type  4   force =     0.00010434   -2.87807623    0.05528446
     atom    2 type  4   force =     1.39389808    1.53665100   -2.43851264
     atom    3 type  4   force =     1.32478233    1.58515316    2.43783663
     atom    4 type  3   force =     0.23386485   -2.21855568    0.01511360
     atom    5 type  3   force =    -1.58704757    2.31438041    0.03072735
     atom    6 type  1   force =    -0.82502379    0.08117847   -0.01087831
     atom    7 type  1   force =     0.04912862    0.20564519   -0.00388621
     atom    8 type  2   force =    -0.02647436    0.00489355    0.00028716
     The ionic contribution  to forces
     atom    1 type  4   force =     4.30065740   12.63286333   -0.32825089
     atom    2 type  4   force =    -0.97363064   -6.08295524   13.52074498
     atom    3 type  4   force =    -0.78184165   -6.35866767  -13.41805137
     atom    4 type  3   force =    -4.25524140    7.82024676    0.01376996
     atom    5 type  3   force =    -0.23629943   -9.34480681   -0.08796169
     atom    6 type  1   force =     5.25102075   -0.03569719    0.08595832
     atom    7 type  1   force =    -2.37630359    0.86722601    0.22693064
     atom    8 type  2   force =    -0.92836144    0.50179081   -0.01313994
     The local contribution  to forces
     atom    1 type  4   force =    -3.84398014   -9.65955769    0.26718390
     atom    2 type  4   force =    -0.34162366    4.58421539  -11.07808890
     atom    3 type  4   force =    -0.46865403    4.81048864   10.97911723
     atom    4 type  3   force =     3.65961533   -5.74463939   -0.02273049
     atom    5 type  3   force =     1.65346546    7.08843017    0.05835027
     atom    6 type  1   force =    -4.43154769   -0.17519278   -0.07318333
     atom    7 type  1   force =     2.44079654   -1.00997961   -0.23067500
     atom    8 type  2   force =     0.74590938   -0.51159069    0.01467599
     The core correction contribution to forces
     atom    1 type  4   force =    -0.00174358    0.00882841   -0.00014009
     atom    2 type  4   force =    -0.00480555   -0.00511983    0.00804834
     atom    3 type  4   force =    -0.00456509   -0.00527528   -0.00805246
     atom    4 type  3   force =     0.00113486    0.01779161   -0.00017341
     atom    5 type  3   force =     0.01228859   -0.01631708   -0.00023980
     atom    6 type  1   force =     0.01652919   -0.00220478    0.00021324
     atom    7 type  1   force =     0.00339114   -0.00931094    0.00000817
     atom    8 type  2   force =     0.00000000    0.00000000    0.00000000
     The Hubbard contrib.    to forces
     atom    1 type  4   force =     0.00000000    0.00000000    0.00000000
     atom    2 type  4   force =     0.00000000    0.00000000    0.00000000
     atom    3 type  4   force =     0.00000000    0.00000000    0.00000000
     atom    4 type  3   force =     0.00000000    0.00000000    0.00000000
     atom    5 type  3   force =     0.00000000    0.00000000    0.00000000
     atom    6 type  1   force =     0.00000000    0.00000000    0.00000000
     atom    7 type  1   force =     0.00000000    0.00000000    0.00000000
     atom    8 type  2   force =     0.00000000    0.00000000    0.00000000
     The SCF correction term to forces
     atom    1 type  4   force =     0.00042441    0.00010000   -0.00002492
     atom    2 type  4   force =     0.00003674   -0.00018149    0.00013356
     atom    3 type  4   force =     0.00002088   -0.00020242   -0.00015341
     atom    4 type  3   force =    -0.00042468   -0.00053310   -0.00001166
     atom    5 type  3   force =    -0.00010020    0.00037289   -0.00003927
     atom    6 type  1   force =     0.00014583   -0.00016945   -0.00004916
     atom    7 type  1   force =    -0.00011760   -0.00055132   -0.00001841
     atom    8 type  2   force =     0.00019729   -0.00004251   -0.00000521

     Total force =     0.693887     Total SCF correction =     0.001155


     Computing stress (Cartesian axis) and pressure

          total   stress  (Ry/bohr**3)                   (kbar)     P=      244.27
   0.00360490   0.00006290   0.00000127          530.30        9.25        0.19
   0.00006290   0.00088361  -0.00000449            9.25      129.98       -0.66
   0.00000127  -0.00000449   0.00049304            0.19       -0.66       72.53

     kinetic stress (kbar)  18583.59     96.32     16.46
                               96.32  17933.50      0.86
                               16.46      0.86  18408.54

     local   stress (kbar) -35943.39   -351.63     58.61
                             -351.63 -30231.37     88.13
                               58.61     88.13   4701.32

     nonloc. stress (kbar)   5244.40     -3.52      3.40
                               -3.52   5108.13     -0.18
                                3.40     -0.18   5163.82

     hartree stress (kbar)  15914.63    245.95     -9.21
                              245.95  13625.29    -38.56
                               -9.21    -38.56   -449.51

     exc-cor stress (kbar)  -3100.29     -0.21     -0.32
                               -0.21  -3108.11      0.01
                               -0.32      0.01  -3143.84

     corecor stress (kbar)   -944.57      0.93     -0.06
                                0.93   -936.14     -0.06
                               -0.06     -0.06   -931.09

     ewald   stress (kbar)    775.93     21.40    -68.69
                               21.40  -2261.31    -50.86
                              -68.69    -50.86 -23676.72

     hubbard stress (kbar)      0.00      0.00      0.00
                                0.00      0.00      0.00
                                0.00      0.00      0.00

     DFT-D   stress (kbar)      0.00      0.00      0.00
                                0.00      0.00      0.00
                                0.00      0.00      0.00

     XDM     stress (kbar)      0.00      0.00      0.00
                                0.00      0.00      0.00
                                0.00      0.00      0.00

     dft-nl  stress (kbar)      0.00      0.00      0.00
                                0.00      0.00      0.00
                                0.00      0.00      0.00

     TS-vdW  stress (kbar)      0.00      0.00      0.00
                                0.00      0.00      0.00
                                0.00      0.00      0.00

     MDB     stress (kbar)      0.00      0.00      0.00
                                0.00      0.00      0.00
                                0.00      0.00      0.00

     3D-RISM stress (kbar)      0.00      0.00      0.00
                                0.00      0.00      0.00
                                0.00      0.00      0.00


     Writing all to output data dir ./energybasic-alt.save/

     init_run     :     39.61s CPU     14.92s WALL (       1 calls)
     electrons    :   1786.78s CPU    598.17s WALL (       1 calls)
     forces       :     17.25s CPU      6.49s WALL (       1 calls)
     stress       :     46.12s CPU     15.55s WALL (       1 calls)

     Called by init_run:
     wfcinit      :     35.84s CPU     12.46s WALL (       1 calls)
     wfcinit:atom :      0.32s CPU      0.16s WALL (      63 calls)
     wfcinit:wfcr :     33.82s CPU     11.39s WALL (      63 calls)
     potinit      :      1.29s CPU      0.47s WALL (       1 calls)
     hinit0       :      2.11s CPU      1.74s WALL (       1 calls)

     Called by electrons:
     c_bands      :   1568.25s CPU    532.12s WALL (      10 calls)
     sum_band     :    203.34s CPU     60.66s WALL (      10 calls)
     v_of_rho     :      2.71s CPU      0.80s WALL (      11 calls)
     v_h          :      0.12s CPU      0.04s WALL (      11 calls)
     v_xc         :      3.14s CPU      0.93s WALL (      13 calls)
     newd         :      5.40s CPU      2.64s WALL (      11 calls)
     PAW_pot      :      7.66s CPU      2.11s WALL (      11 calls)
     mix_rho      :      0.33s CPU      0.13s WALL (      10 calls)

     Called by c_bands:
     init_us_2    :      9.38s CPU      3.53s WALL (    1449 calls)
     init_us_2:cp :      9.36s CPU      3.52s WALL (    1449 calls)
     cegterg      :   1549.89s CPU    524.63s WALL (     630 calls)

     Called by sum_band:
     sum_band:wei :      0.01s CPU      0.01s WALL (      10 calls)
     sum_band:loo :    199.81s CPU     58.80s WALL (      10 calls)
     sum_band:buf :      0.30s CPU      0.12s WALL (     630 calls)
     sum_band:ini :      4.79s CPU      1.47s WALL (     630 calls)
     sum_band:cal :      9.47s CPU      2.60s WALL (     630 calls)
     sum_band:bec :     17.44s CPU      5.68s WALL (     630 calls)
     addusdens    :      2.51s CPU      1.48s WALL (      10 calls)
                                        0.00s GPU  (      10 calls)
     addusd:skk   :      0.07s CPU      0.03s WALL (      40 calls)
                                        0.00s GPU  (      40 calls)

     Called by *egterg:
     cdiaghg      :     25.39s CPU     11.49s WALL (    3723 calls)
     cegterg:over :     16.77s CPU      6.44s WALL (    3093 calls)
     cegterg:upda :    121.49s CPU     46.69s WALL (    3093 calls)
     cegterg:last :     15.13s CPU      6.01s WALL (    1667 calls)
     h_psi        :   1079.48s CPU    341.45s WALL (    3786 calls)
     s_psi        :     77.82s CPU     26.62s WALL (    3786 calls)
     g_psi        :     91.06s CPU     35.99s WALL (    3093 calls)

     Called by h_psi:
     h_psi:calbec :     50.17s CPU     12.92s WALL (    3786 calls)
     vloc_psi     :    912.47s CPU    285.75s WALL (    3786 calls)
     add_vuspsi   :     39.99s CPU     13.36s WALL (    3786 calls)

     General routines
     calbec       :     64.17s CPU     16.99s WALL (    4731 calls)
     fft          :      2.12s CPU      0.84s WALL (     166 calls)
     ffts         :      0.45s CPU      0.26s WALL (      21 calls)
     fftw         :    904.04s CPU    278.54s WALL (  111520 calls)
     interpolate  :      0.48s CPU      0.27s WALL (      11 calls)

     Parallel routines

     PAW routines
     PAW_pot      :      7.66s CPU      2.11s WALL (      11 calls)

     PWSCF        :  31m31.32s CPU  10m35.94s WALL


   This run was terminated on:   5: 2:29  12Feb2026            

=------------------------------------------------------------------------------=
   JOB DONE.
=------------------------------------------------------------------------------=
