<UPF version="2.0.1">
  <PP_INFO>
    Generated using "atomic" code by A. Dal Corso  v.7.2
    Author: ADC
    Generation date:  5Mar2026
    Pseudopotential type: PAW
    Element: Gd
    Functional:  SLA  PW   PBX  PBC
    Suggested minimum cutoff for wavefunctions: 117. Ry
    Suggested minimum cutoff for charge density: 579. Ry
    The Pseudo was generated with a Scalar-Relativistic Calculation
    Local Potential by smoothing AE potential with Bessel fncs, cutoff radius:   1.7000
    Valence configuration: 
    nl pn  l   occ       Rcut    Rcut US       E pseu
    5S  1  0  2.00      1.300      1.600    -3.385963
    6S  2  0  2.00      1.300      1.600    -0.269283
    5P  2  1  6.00      1.400      1.800    -1.786461
    4D  3  2 10.00      1.000      1.200   -10.353143
    5D  4  2  0.00      1.000      1.200    -0.105081
    4F  4  3  8.00      1.100      1.300    -0.213273
    Generation configuration:
    5S  1  0  2.00      1.300      1.600    -3.385879
    6S  2  0  2.00      1.300      1.600    -0.269256
    5P  2  1  6.00      1.400      1.800    -1.786383
    6P  3  1  0.00      1.400      1.800     0.300000
    4D  3  2 10.00      1.000      1.200   -10.353056
    5D  4  2  0.00      1.000      1.200    -0.105046
    4F  4  3  8.00      1.100      1.300    -0.213186
    4F  4  3  0.00      1.100      1.300     1.000000
    Pseudization used: troullier-martins
    <PP_INPUTFILE>
@input
title='Gd',
zed=64.0,
rel=1,
config='[Xe] 4f8 5d0.0 6s2. 6p0.',
iswitch=3,
dft='PBE'
/
@inputp
lpaw=.true.,
pseudotype=3,
file_pseudopw='Gd.pbe-spdfn-kjpaw_psl.1.0.0.UPF',
author='ADC',
lloc=-1,
rcloc=1.7,
which_augfun='PSQ',
rmatch_augfun_nc=.true.,
nlcc=.true.,
new_core_ps=.true.,
rcore=1.2,
tm=.true.
/
8
5S  1  0  2.00  0.00  1.30  1.60  0.0
6S  2  0  2.00  0.00  1.30  1.60  0.0
5P  2  1  6.00  0.00  1.40  1.80  0.0
6P  3  1  0.00  0.30  1.40  1.80  0.0
4D  3  2 10.00  0.00  1.00  1.20  0.0
5D  4  2  0.00  0.00  1.00  1.20  0.0
4F  4  3  8.00  0.00  1.10  1.30  0.0
4F  4  3  0.00  1.00  1.10  1.30  0.0
    </PP_INPUTFILE>
  </PP_INFO>
    <!-- END OF HUMAN READABLE SECTION -->
  <PP_HEADER generated="Generated using 'atomic' code by A. Dal Corso  v.7.2" author="ADC" date=" 5Mar2026" comment="" element="Gd" pseudo_type="PAW" relativistic="scalar" is_ultrasoft="true" is_paw="true" is_coulomb="false" has_so="false" has_wfc="true" has_gipaw="false" paw_as_gipaw="false" core_correction="true" functional=" SLA  PW   PBX  PBC" z_valence="28.000000000000000" total_psenergy="-1196.9511412544875" wfc_cutoff="116.60603456939451" rho_cutoff="578.56019851117037" l_max="3" l_max_rho="6" l_local="-1" mesh_size="1263" number_of_wfc="6" number_of_proj="8"/>
  <PP_MESH mesh="1263" dx="1.2500000000000001E-002" xmin="-7.0000000000000000" rmax="100.00000000000000" zmesh="64.000000000000000">
    <PP_R>
   1.424815571178932E-05   1.442737544795347E-05   1.460884949088410E-05
   1.479260619626959E-05   1.497867427646906E-05   1.516708280499858E-05
   1.535786122107404E-05   1.555103933421111E-05   1.574664732888298E-05
   1.594471576923679E-05   1.614527560386933E-05   1.634835817066279E-05
   1.655399520168141E-05   1.676221882812964E-05   1.697306158537278E-05
   1.718655641802060E-05   1.740273668507505E-05   1.762163616514269E-05
   1.784328906171262E-05   1.806773000850090E-05   1.829499407486210E-05
   1.852511677126895E-05   1.875813405486095E-05   1.899408233506273E-05
   1.923299847927314E-05   1.947491981862577E-05   1.971988415382210E-05
   1.996792976103788E-05   2.021909539790388E-05   2.047342030956188E-05
   2.073094423479674E-05   2.099170741224573E-05   2.125575058668584E-05
   2.152311501540027E-05   2.179384247462498E-05   2.206797526607628E-05
   2.234555622356054E-05   2.262662871966712E-05   2.291123667254536E-05
   2.319942455276698E-05   2.349123739027457E-05   2.378672078141768E-05
   2.408592089607735E-05   2.438888448488019E-05   2.469565888650339E-05
   2.500629203507132E-05   2.532083246764542E-05   2.563932933180822E-05
   2.596183239334272E-05   2.628839204400846E-05   2.661905930941522E-05
   2.695388585699597E-05   2.729292400407999E-05   2.763622672606751E-05
   2.798384766470734E-05   2.833584113647836E-05   2.869226214107667E-05
   2.905316637000939E-05   2.941861021529652E-05   2.978865077828245E-05
   3.016334587855796E-05   3.054275406299480E-05   3.092693461489370E-05
   3.131594756324749E-05   3.170985369212084E-05   3.210871455014780E-05
   3.251259246014890E-05   3.292155052886928E-05   3.333565265683919E-05
   3.375496354835866E-05   3.417954872160758E-05   3.460947451888308E-05
   3.504480811696568E-05   3.548561753761573E-05   3.593197165820213E-05
   3.638394022246428E-05   3.684159385140989E-05   3.730500405434958E-05
   3.777424324007037E-05   3.824938472814973E-05   3.873050276041185E-05
   3.921767251252810E-05   3.971097010576341E-05   4.021047261887031E-05
   4.071625810013279E-05   4.122840557956127E-05   4.174699508124142E-05
   4.227210763583792E-05   4.280382529325576E-05   4.334223113546076E-05
   4.388740928946114E-05   4.443944494045262E-05   4.499842434512880E-05
   4.556443484515887E-05   4.613756488083510E-05   4.671790400489157E-05
   4.730554289649711E-05   4.790057337542411E-05   4.850308841639545E-05
   4.911318216361219E-05   4.973094994546355E-05   5.035648828942229E-05
   5.098989493712732E-05   5.163126885965597E-05   5.228071027298863E-05
   5.293832065366737E-05   5.360420275465210E-05   5.427846062137584E-05
   5.496119960800201E-05   5.565252639388640E-05   5.635254900024579E-05
   5.706137680703662E-05   5.777912057004581E-05   5.850589243819657E-05
   5.924180597107200E-05   5.998697615665881E-05   6.074151942931454E-05
   6.150555368796068E-05   6.227919831450454E-05   6.306257419249310E-05
   6.385580372600104E-05   6.465901085875682E-05   6.547232109350905E-05
   6.629586151163657E-05   6.712976079300531E-05   6.797414923607452E-05
   6.882915877825635E-05   6.969492301653128E-05   7.057157722832291E-05
   7.145925839263552E-05   7.235810521145697E-05   7.326825813143142E-05
   7.418985936580434E-05   7.512305291664353E-05   7.606798459734005E-05
   7.702480205539144E-05   7.799365479547214E-05   7.897469420279397E-05
   7.996807356676018E-05   8.097394810491757E-05   8.199247498720913E-05
   8.302381336053243E-05   8.406812437360657E-05   8.512557120215195E-05
   8.619631907438706E-05   8.728053529684531E-05   8.837838928051731E-05
   8.949005256732164E-05   9.061569885690846E-05   9.175550403380081E-05
   9.290964619487647E-05   9.407830567719623E-05   9.526166508618184E-05
   9.645990932414846E-05   9.767322561919627E-05   9.890180355446480E-05
   1.001458350977560E-04   1.014055146315295E-04   1.026810389832752E-04
   1.039726074562683E-04   1.052804218607104E-04   1.066046865452629E-04
   1.079456084289771E-04   1.093033970336252E-04   1.106782645164395E-04
   1.120704257032609E-04   1.134800981221077E-04   1.149075020371631E-04
   1.163528604831928E-04   1.178163993003949E-04   1.192983471696869E-04
   1.207989356484386E-04   1.223183992066527E-04   1.238569752636015E-04
   1.254149042249244E-04   1.269924295201908E-04   1.285897976409380E-04
   1.302072581791845E-04   1.318450638664302E-04   1.335034706131460E-04
   1.351827375487599E-04   1.368831270621473E-04   1.386049048426290E-04
   1.403483399214862E-04   1.421137047139973E-04   1.439012750620022E-04
   1.457113302770051E-04   1.475441531838158E-04   1.494000301647423E-04
   1.512792512043389E-04   1.531821099347161E-04   1.551089036814221E-04
   1.570599335098998E-04   1.590355042725292E-04   1.610359246562617E-04
   1.630615072308516E-04   1.651125684976977E-04   1.671894289392957E-04
   1.692924130693149E-04   1.714218494833045E-04   1.735780709100360E-04
   1.757614142634948E-04   1.779722206955215E-04   1.802108356491191E-04
   1.824776089124290E-04   1.847728946733847E-04   1.870970515750566E-04
   1.894504427716890E-04   1.918334359854443E-04   1.942464035638608E-04
   1.966897225380312E-04   1.991637746815167E-04   2.016689465699980E-04
   2.042056296416794E-04   2.067742202584522E-04   2.093751197678254E-04
   2.120087345656396E-04   2.146754761595647E-04   2.173757612334003E-04
   2.201100117121834E-04   2.228786548281134E-04   2.256821231873106E-04
   2.285208548374097E-04   2.313952933360062E-04   2.343058878199643E-04
   2.372530930755929E-04   2.402373696097099E-04   2.432591837215952E-04
   2.463190075758513E-04   2.494173192761816E-04   2.525546029400918E-04
   2.557313487745379E-04   2.589480531525196E-04   2.622052186906400E-04
   2.655033543276419E-04   2.688429754039279E-04   2.722246037420862E-04
   2.756487677284244E-04   2.791160023955318E-04   2.826268495058799E-04
   2.861818576364715E-04   2.897815822645607E-04   2.934265858544439E-04
   2.971174379453477E-04   3.008547152404208E-04   3.046390016968437E-04
   3.084708886170747E-04   3.123509747412411E-04   3.162798663406936E-04
   3.202581773127384E-04   3.242865292765585E-04   3.283655516703442E-04
   3.324958818496434E-04   3.366781651869495E-04   3.409130551725433E-04
   3.452012135166007E-04   3.495433102525875E-04   3.539400238419527E-04
   3.583920412801395E-04   3.629000582039309E-04   3.674647790001423E-04
   3.720869169156856E-04   3.767671941690137E-04   3.815063420629693E-04
   3.863051010990531E-04   3.911642210931273E-04   3.960844612925773E-04
   4.010665904949443E-04   4.061113871680523E-04   4.112196395716455E-04
   4.163921458805545E-04   4.216297143094138E-04   4.269331632389464E-04
   4.323033213438372E-04   4.377410277222160E-04   4.432471320267672E-04
   4.488224945974911E-04   4.544679865961324E-04   4.601844901423014E-04
   4.659728984513080E-04   4.718341159737266E-04   4.777690585367202E-04
   4.837786534871389E-04   4.898638398364201E-04   4.960255684073118E-04
   5.022648019824386E-04   5.085825154547411E-04   5.149796959798026E-04
   5.214573431300950E-04   5.280164690511650E-04   5.346580986197818E-04
   5.413832696040785E-04   5.481930328257037E-04   5.550884523240151E-04
   5.620706055223386E-04   5.691405833963162E-04   5.762994906443752E-04
   5.835484458603378E-04   5.908885817082044E-04   5.983210450991353E-04
   6.058469973706564E-04   6.134676144681221E-04   6.211840871284581E-04
   6.289976210662164E-04   6.369094371619723E-04   6.449207716530867E-04
   6.530328763268737E-04   6.612470187161924E-04   6.695644822975029E-04
   6.779865666914121E-04   6.865145878657409E-04   6.951498783411488E-04
   7.038937873993410E-04   7.127476812938970E-04   7.217129434637519E-04
   7.307909747493591E-04   7.399831936115770E-04   7.492910363533043E-04
   7.587159573439058E-04   7.682594292464622E-04   7.779229432478741E-04
   7.877080092918653E-04   7.976161563149127E-04   8.076489324851470E-04
   8.178079054442560E-04   8.280946625524344E-04   8.385108111364084E-04
   8.490579787405858E-04   8.597378133813634E-04   8.705519838046312E-04
   8.815021797465211E-04   8.925901121974264E-04   9.038175136693513E-04
   9.151861384666181E-04   9.266977629599800E-04   9.383541858641866E-04
   9.501572285190308E-04   9.621087351739412E-04   9.742105732761478E-04
   9.864646337624746E-04   9.988728313548058E-04   1.011437104859259E-03
   1.024159417469131E-03   1.037041757071651E-03   1.050086136558590E-03
   1.063294594140784E-03   1.076669193666603E-03   1.090212024944432E-03
   1.103925204069213E-03   1.117810873753082E-03   1.131871203660179E-03
   1.146108390745658E-03   1.160524659598967E-03   1.175122262791444E-03
   1.189903481228286E-03   1.204870624504949E-03   1.220026031268018E-03
   1.235372069580636E-03   1.250911137292509E-03   1.266645662414582E-03
   1.282578103498419E-03   1.298710950020353E-03   1.315046722770475E-03
   1.331587974246514E-03   1.348337289052664E-03   1.365297284303444E-03
   1.382470610032614E-03   1.399859949607261E-03   1.417468020147071E-03
   1.435297572948889E-03   1.453351393916617E-03   1.471632303996511E-03
   1.490143159617963E-03   1.508886853139826E-03   1.527866313302344E-03
   1.547084505684786E-03   1.566544433168809E-03   1.586249136407673E-03
   1.606201694301351E-03   1.626405224477604E-03   1.646862883779130E-03
   1.667577868756816E-03   1.688553416169208E-03   1.709792803488265E-03
   1.731299349411468E-03   1.753076414380371E-03   1.775127401105684E-03
   1.797455755098944E-03   1.820064965210891E-03   1.842958564176603E-03
   1.866140129167494E-03   1.889613282350261E-03   1.913381691452843E-03
   1.937449070337520E-03   1.961819179581208E-03   1.986495827063056E-03
   2.011482868559441E-03   2.036784208346433E-03   2.062403799809848E-03
   2.088345646062977E-03   2.114613800572073E-03   2.141212367789726E-03
   2.168145503796176E-03   2.195417416948721E-03   2.223032368539276E-03
   2.250994673460207E-03   2.279308700878553E-03   2.307978874918701E-03
   2.337009675353674E-03   2.366405638305104E-03   2.396171356952007E-03
   2.426311482248485E-03   2.456830723650432E-03   2.487733849851412E-03
   2.519025689527764E-03   2.550711132093100E-03   2.582795128462290E-03
   2.615282691825040E-03   2.648178898429222E-03   2.681488888374045E-03
   2.715217866413205E-03   2.749371102768149E-03   2.783953933951539E-03
   2.818971763601107E-03   2.854430063323981E-03   2.890334373551629E-03
   2.926690304405579E-03   2.963503536573989E-03   3.000779822199285E-03
   3.038524985776932E-03   3.076744925065532E-03   3.115445612008362E-03
   3.154633093666492E-03   3.194313493163658E-03   3.234493010643012E-03
   3.275177924235903E-03   3.316374591042861E-03   3.358089448126885E-03
   3.400329013519266E-03   3.443099887238031E-03   3.486408752319216E-03
   3.530262375861108E-03   3.574667610081602E-03   3.619631393388889E-03
   3.665160751465591E-03   3.711262798366533E-03   3.757944737630347E-03
   3.805213863405012E-03   3.853077561587603E-03   3.901543310978339E-03
   3.950618684449164E-03   4.000311350127033E-03   4.050629072592057E-03
   4.101579714090741E-03   4.153171235764481E-03   4.205411698893498E-03
   4.258309266156448E-03   4.311872202905831E-03   4.366108878459491E-03
   4.421027767408329E-03   4.476637450940470E-03   4.532946618182115E-03
   4.589964067555202E-03   4.647698708152199E-03   4.706159561128161E-03
   4.765355761110301E-03   4.825296557625311E-03   4.885991316544592E-03
   4.947449521547709E-03   5.009680775604233E-03   5.072694802474215E-03
   5.136501448227565E-03   5.201110682782495E-03   5.266532601463351E-03
   5.332777426578030E-03   5.399855509015227E-03   5.467777329861804E-03
   5.536553502040450E-03   5.606194771967997E-03   5.676712021234554E-03
   5.748116268303786E-03   5.820418670234579E-03   5.893630524424329E-03
   5.967763270374205E-03   6.042828491476586E-03   6.118837916824984E-03
   6.195803423046765E-03   6.273737036158856E-03   6.352650933446865E-03
   6.432557445367793E-03   6.513469057476694E-03   6.595398412377587E-03
   6.678358311698857E-03   6.762361718093555E-03   6.847421757264837E-03
   6.933551720016873E-03   7.020765064331589E-03   7.109075417471464E-03
   7.198496578108845E-03   7.289042518482011E-03   7.380727386578355E-03
   7.473565508345065E-03   7.567571389927541E-03   7.662759719936037E-03
   7.759145371740779E-03   7.856743405795952E-03   7.955569071992958E-03
   8.055637812043192E-03   8.156965261890881E-03   8.259567254156214E-03
   8.363459820609223E-03   8.468659194674800E-03   8.575181813969166E-03
   8.683044322868308E-03   8.792263575108690E-03   8.902856636420672E-03
   9.014840787195106E-03   9.128233525183375E-03   9.243052568231491E-03
   9.359315857048528E-03   9.477041558009897E-03   9.596248065995905E-03
   9.716954007265943E-03   9.839178242368912E-03   9.962939869090215E-03
   1.008825822543581E-02   1.021515289265387E-02   1.034364369829428E-02
   1.047375071930687E-02   1.060549428517836E-02   1.073889498110894E-02
   1.087397365122878E-02   1.101075140185490E-02   1.114924960478911E-02
   1.128948990065739E-02   1.143149420229128E-02   1.157528469815184E-02
   1.172088385579659E-02   1.186831442539014E-02   1.201759944325892E-02
   1.216876223549070E-02   1.232182642157932E-02   1.247681591811527E-02
   1.263375494252270E-02   1.279266801684348E-02   1.295357997156876E-02
   1.311651594951887E-02   1.328150140977185E-02   1.344856213164154E-02
   1.361772421870560E-02   1.378901410288430E-02   1.396245854857056E-02
   1.413808465681187E-02   1.431591986954497E-02   1.449599197388365E-02
   1.467832910646056E-02   1.486295975782366E-02   1.504991277688785E-02
   1.523921737544271E-02   1.543090313271691E-02   1.562500000000000E-02
   1.582153830532242E-02   1.602054875819421E-02   1.622206245440352E-02
   1.642611088087539E-02   1.663272592059155E-02   1.684193985757237E-02
   1.705378538192113E-02   1.726829559493200E-02   1.748550401426221E-02
   1.770544457916916E-02   1.792815165581363E-02   1.815366004262943E-02
   1.838200497576080E-02   1.861322213456811E-02   1.884734764720282E-02
   1.908441809625266E-02   1.932447052445758E-02   1.956754244049789E-02
   1.981367182485501E-02   2.006289713574596E-02   2.031525731513268E-02
   2.057079179480659E-02   2.082954050255005E-02   2.109154386837506E-02
   2.135684283084057E-02   2.162547884344924E-02   2.189749388112459E-02
   2.217293044676966E-02   2.245183157790821E-02   2.273424085340939E-02
   2.302020240029712E-02   2.330976090064486E-02   2.360296159855740E-02
   2.389985030724031E-02   2.420047341615833E-02   2.450487789828389E-02
   2.481311131743662E-02   2.512522183571537E-02   2.544125822102361E-02
   2.576126985468950E-02   2.608530673918192E-02   2.641341950592331E-02
   2.674565942320102E-02   2.708207840417807E-02   2.742272901500466E-02
   2.776766448303186E-02   2.811693870512827E-02   2.847060625610172E-02
   2.882872239722658E-02   2.919134308487847E-02   2.955852497927766E-02
   2.993032545334214E-02   3.030680260165242E-02   3.068801524952888E-02
   3.107402296222331E-02   3.146488605422620E-02   3.186066559869087E-02
   3.226142343697637E-02   3.266722218831027E-02   3.307812525957304E-02
   3.349419685520562E-02   3.391550198724130E-02   3.434210648546411E-02
   3.477407700769483E-02   3.521148105020638E-02   3.565438695827038E-02
   3.610286393683601E-02   3.655698206134363E-02   3.701681228867409E-02
   3.748242646823591E-02   3.795389735319201E-02   3.843129861182736E-02
   3.891470483905988E-02   3.940419156809609E-02   3.989983528223323E-02
   4.040171342681011E-02   4.090990442130784E-02   4.142448767160325E-02
   4.194554358237613E-02   4.247315356967258E-02   4.300740007362668E-02
   4.354836657134143E-02   4.409613758993280E-02   4.465079871973696E-02
   4.521243662768377E-02   4.578113907083914E-02   4.635699491011670E-02
   4.694009412416300E-02   4.753052782341665E-02   4.812838826434424E-02
   4.873376886385618E-02   4.934676421390264E-02   4.996747009625429E-02
   5.059598349746817E-02   5.123240262404177E-02   5.187682691775861E-02
   5.252935707122548E-02   5.319009504360653E-02   5.385914407655433E-02
   5.453660871034127E-02   5.522259480019490E-02   5.591720953283719E-02
   5.662056144323345E-02   5.733276043155073E-02   5.805391778032975E-02
   5.878414617187366E-02   5.952355970585410E-02   6.027227391714021E-02
   6.103040579385086E-02   6.179807379563402E-02   6.257539787217702E-02
   6.336249948194807E-02   6.415950161117517E-02   6.496652879306267E-02
   6.578370712724937E-02   6.661116429951285E-02   6.744902960171945E-02
   6.829743395202745E-02   6.915650991534278E-02   7.002639172403226E-02
   7.090721529889855E-02   7.179911827041703E-02   7.270224000024170E-02
   7.361672160298038E-02   7.454270596824379E-02   7.548033778297318E-02
   7.642976355404697E-02   7.739113163117364E-02   7.836459223007129E-02
   7.935029745593877E-02   8.034840132722330E-02   8.135905979968516E-02
   8.238243079076703E-02   8.341867420426843E-02   8.446795195533073E-02
   8.553042799573758E-02   8.660626833953163E-02   8.769564108895554E-02
   8.879871646071794E-02   8.991566681258954E-02   9.104666667033562E-02
   9.219189275498466E-02   9.335152401044253E-02   9.452574163145235E-02
   9.571472909190604E-02   9.691867217351362E-02   9.813775899483072E-02
   9.937218004065358E-02   1.006221281917822E-01   1.018877987551580E-01
   1.031693894943818E-01   1.044671006606136E-01   1.057811350238636E-01
   1.071116979046747E-01   1.084589972062037E-01   1.098232434467078E-01
   1.112046497924375E-01   1.126034320909448E-01   1.140198089048099E-01
   1.154540015457914E-01   1.169062341094076E-01   1.183767335099508E-01
   1.198657295159442E-01   1.213734547860434E-01   1.229001449053889E-01
   1.244460384224184E-01   1.260113768861387E-01   1.275964048838695E-01
   1.292013700794605E-01   1.308265232519885E-01   1.324721183349435E-01
   1.341384124559046E-01   1.358256659767188E-01   1.375341425341814E-01
   1.392641090812303E-01   1.410158359286583E-01   1.427895967873489E-01
   1.445856688110451E-01   1.464043326396552E-01   1.482458724431020E-01
   1.501105759657267E-01   1.519987345712482E-01   1.539106432882903E-01
   1.558466008564801E-01   1.578069097731258E-01   1.597918763404845E-01
   1.618018107136202E-01   1.638370269488683E-01   1.658978430529064E-01
   1.679845810324430E-01   1.700975669445336E-01   1.722371309475251E-01
   1.744036073526463E-01   1.765973346762436E-01   1.788186556926738E-01
   1.810679174878657E-01   1.833454715135502E-01   1.856516736421781E-01
   1.879868842225240E-01   1.903514681359918E-01   1.927457948536292E-01
   1.951702384938565E-01   1.976251778809253E-01   2.001109966041100E-01
   2.026280830776427E-01   2.051768306014067E-01   2.077576374223873E-01
   2.103709067969017E-01   2.130170470536057E-01   2.156964716572984E-01
   2.184095992735257E-01   2.211568538339970E-01   2.239386646028273E-01
   2.267554662436082E-01   2.296076988873272E-01   2.324958082011383E-01
   2.354202454579968E-01   2.383814676071747E-01   2.413799373456567E-01
   2.444161231904402E-01   2.474904995517411E-01   2.506035468071199E-01
   2.537557513765447E-01   2.569476057983916E-01   2.601796088064085E-01
   2.634522654076414E-01   2.667660869613416E-01   2.701215912588698E-01
   2.735193026045983E-01   2.769597518978382E-01   2.804434767157915E-01
   2.839710213975479E-01   2.875429371291418E-01   2.911597820296721E-01
   2.948221212385138E-01   2.985305270036198E-01   3.022855787709346E-01
   3.060878632749378E-01   3.099379746303177E-01   3.138365144248073E-01
   3.177840918131817E-01   3.217813236124381E-01   3.258288343981787E-01
   3.299272566021973E-01   3.340772306113022E-01   3.382794048673762E-01
   3.425344359686949E-01   3.468429887725260E-01   3.512057364990098E-01
   3.556233608363552E-01   3.600965520473531E-01   3.646260090772300E-01
   3.692124396628633E-01   3.738565604433617E-01   3.785590970720465E-01
   3.833207843298340E-01   3.881423662400445E-01   3.930245961846625E-01
   3.979682370220484E-01   4.029740612061416E-01   4.080428509071561E-01
   4.131753981337938E-01   4.183725048570024E-01   4.236349831352798E-01
   4.289636552415640E-01   4.343593537917139E-01   4.398229218746040E-01
   4.453552131838643E-01   4.509570921512662E-01   4.566294340817960E-01
   4.623731252904216E-01   4.681890632405785E-01   4.740781566844056E-01
   4.800413258047334E-01   4.860795023588697E-01   4.921936298241870E-01
   4.983846635455391E-01   5.046535708845425E-01   5.110013313707215E-01
   5.174289368545674E-01   5.239373916625151E-01   5.305277127538680E-01
   5.372009298797067E-01   5.439580857437820E-01   5.508002361654459E-01
   5.577284502446236E-01   5.647438105288584E-01   5.718474131824693E-01
   5.790403681578218E-01   5.863237993687657E-01   5.936988448662469E-01
   6.011666570161271E-01   6.087284026792503E-01   6.163852633937587E-01
   6.241384355597177E-01   6.319891306260537E-01   6.399385752798407E-01
   6.479880116379815E-01   6.561386974412814E-01   6.643919062509810E-01
   6.727489276477494E-01   6.812110674331798E-01   6.897796478338326E-01
   6.984560077078259E-01   7.072415027540432E-01   7.161375057239612E-01
   7.251454066361402E-01   7.342666129934273E-01   7.435025500028704E-01
   7.528546607984190E-01   7.623244066664134E-01   7.719132672739092E-01
   7.816227408998877E-01   7.914543446693542E-01   8.014096147904016E-01
   8.114901067942420E-01   8.216973957782571E-01   8.320330766521202E-01
   8.424987643869932E-01   8.530960942678787E-01   8.638267221491326E-01
   8.746923247131899E-01   8.856945997325605E-01   8.968352663350975E-01
   9.081160652726248E-01   9.195387591929290E-01   9.311051329151717E-01
   9.428169937087821E-01   9.546761715758340E-01   9.666845195369982E-01
   9.788439139210768E-01   9.911562546581772E-01   1.003623465576593E+00
   1.016247494703391E+00   1.029030314568808E+00   1.041973922514456E+00
   1.055080341005409E+00   1.068351617946222E+00   1.081789827000916E+00
   1.095397067916998E+00   1.109175466853546E+00   1.123127176713423E+00
   1.137254377479683E+00   1.151559276556185E+00   1.166044109112514E+00
   1.180711138433229E+00   1.195562656271498E+00   1.210600983207203E+00
   1.225828469009518E+00   1.241247493004083E+00   1.256860464444771E+00
   1.272669822890127E+00   1.288678038584580E+00   1.304887612844395E+00
   1.321301078448531E+00   1.337921000034385E+00   1.354749974498514E+00
   1.371790631402421E+00   1.389045633383411E+00   1.406517676570653E+00
   1.424209491006444E+00   1.442123841072779E+00   1.460263525923309E+00
   1.478631379920690E+00   1.497230273079482E+00   1.516063111514585E+00
   1.535132837895314E+00   1.554442431905218E+00   1.573994910707643E+00
   1.593793329417183E+00   1.613840781577045E+00   1.634140399642410E+00
   1.654695355469907E+00   1.675508860813196E+00   1.696584167824837E+00
   1.717924569564431E+00   1.739533400513162E+00   1.761414037094833E+00
   1.783569898203422E+00   1.806004445737307E+00   1.828721185140186E+00
   1.851723665948802E+00   1.875015482347587E+00   1.898600273730234E+00
   1.922481725268383E+00   1.946663568487429E+00   1.971149581849565E+00
   1.995943591344204E+00   2.021049471085765E+00   2.046471143919041E+00
   2.072212582032135E+00   2.098277807577118E+00   2.124670893298517E+00
   2.151395963169668E+00   2.178457193037112E+00   2.205858811273078E+00
   2.233605099436156E+00   2.261700392940330E+00   2.290149081732362E+00
   2.318955610977759E+00   2.348124481755328E+00   2.377660251760463E+00
   2.407567536017327E+00   2.437851007599924E+00   2.468515398362304E+00
   2.499565499677917E+00   2.531006163188255E+00   2.562842301560968E+00
   2.595078889257439E+00   2.627720963310085E+00   2.660773624109393E+00
   2.694242036200849E+00   2.728131429091945E+00   2.762447098069257E+00
   2.797194405025885E+00   2.832378779299240E+00   2.868005718519375E+00
   2.904080789468036E+00   2.940609628948445E+00   2.977597944666094E+00
   3.015051516120572E+00   3.052976195508609E+00   3.091377908638527E+00
   3.130262655856122E+00   3.169636512982264E+00   3.209505632262240E+00
   3.249876243327041E+00   3.290754654166793E+00   3.332147252116345E+00
   3.374060504853345E+00   3.416500961408815E+00   3.459475253190424E+00
   3.502990095018708E+00   3.547052286176220E+00   3.591668711469982E+00
   3.636846342307223E+00   3.682592237784666E+00   3.728913545791560E+00
   3.775817504126512E+00   3.823311441628443E+00   3.871402779321724E+00
   3.920099031575697E+00   3.969407807278864E+00   4.019336811027734E+00
   4.069893844330731E+00   4.121086806827176E+00   4.172923697521596E+00
   4.225412616033640E+00   4.278561763863602E+00   4.332379445673968E+00
   4.386874070587024E+00   4.442054153498765E+00   4.497928316409427E+00
   4.554505289770628E+00   4.611793913849567E+00   4.669803140110321E+00
   4.728542032612498E+00   4.788019769427572E+00   4.848245644072913E+00
   4.909229066963972E+00   4.970979566884657E+00   5.033506792476196E+00
   5.096820513744817E+00   5.160930623588264E+00   5.225847139341641E+00
   5.291580204342618E+00   5.358140089516318E+00   5.425537194980236E+00
   5.493782051669200E+00   5.562885322980923E+00   5.632857806442152E+00
   5.703710435395764E+00   5.775454280709207E+00   5.848100552504253E+00
   5.921660601908680E+00   5.996145922829879E+00   6.071568153750762E+00
   6.147939079548382E+00   6.225270633335249E+00   6.303574898323986E+00
   6.382864109715321E+00   6.463150656609825E+00   6.544447083943817E+00
   6.626766094449446E+00   6.710120550639592E+00   6.794523476817635E+00
   6.879988061112483E+00   6.966527657539337E+00   7.054155788086180E+00
   7.142886144826702E+00   7.232732592059681E+00   7.323709168475266E+00
   7.415830089348639E+00   7.509109748761084E+00   7.603562721849175E+00
   7.699203767082137E+00   7.796047828567844E+00   7.894110038387961E+00
   7.993405718962253E+00   8.093950385442843E+00   8.195759748138444E+00
   8.298849714969080E+00   8.403236393951834E+00   8.508936095717647E+00
   8.615965336059981E+00   8.724340838515406E+00   8.834079536976644E+00
   8.945198578338623E+00   9.057715325177600E+00   9.171647358464201E+00
   9.287012480310441E+00   9.403828716751285E+00   9.522114320561377E+00
   9.641887774106932E+00   9.763167792233764E+00   9.885973325191470E+00
   1.001032356159439E+01   1.013623793141998E+01   1.026373610904468E+01
   1.039283801631815E+01   1.052356382567609E+01   1.065593396329212E+01
   1.078996911226960E+01   1.092569021587322E+01   1.106311848080155E+01
   1.120227538050062E+01   1.134318265851908E+01   1.148586233190584E+01
   1.163033669465011E+01   1.177662832116502E+01   1.192476006981487E+01
   1.207475508648672E+01   1.222663680820713E+01   1.238042896680409E+01
   1.253615559261530E+01   1.269384101824287E+01   1.285350988235535E+01
   1.301518713353764E+01   1.317889803418912E+01   1.334466816447112E+01
   1.351252342630378E+01   1.368249004741322E+01   1.385459458542983E+01
   1.402886393203779E+01   1.420532531717707E+01   1.438400631329814E+01
   1.456493483967013E+01   1.474813916674343E+01   1.493364792056684E+01
   1.512149008726057E+01   1.531169501754538E+01   1.550429243132854E+01
   1.569931242234784E+01   1.589678546287361E+01   1.609674240847022E+01