<UPF version="2.0.1">
  <PP_INFO>
    Generated using "atomic" code by A. Dal Corso  v.7.2
    Author: ADC
    Generation date:  5Mar2026
    Pseudopotential type: PAW
    Element:  W
    Functional:  SLA  PW   PBX  PBC
    Suggested minimum cutoff for wavefunctions:  51. Ry
    Suggested minimum cutoff for charge density: 379. Ry
    The Pseudo was generated with a Scalar-Relativistic Calculation
    Local Potential by smoothing AE potential with Bessel fncs, cutoff radius:   1.5000
    Valence configuration: 
    nl pn  l   occ       Rcut    Rcut US       E pseu
    5S  1  0  2.00      1.000      1.300    -5.811670
    6S  2  0  2.00      1.000      1.300    -0.419861
    5P  2  1  6.00      1.100      1.300    -3.175223
    5D  3  2  4.00      1.500      1.800    -0.329256
    4F  4  3 14.00      1.200      1.800    -2.440529
    Generation configuration:
    5S  1  0  2.00      1.000      1.300    -5.811732
    6S  2  0  2.00      1.000      1.300    -0.419876
    5P  2  1  6.00      1.100      1.300    -3.175258
    6P  3  1  0.00      1.100      1.300    -2.400000
    5D  3  2  4.00      1.500      1.800    -0.329275
    5D  3  2  0.00      1.500      1.800     0.050000
    4F  4  3 14.00      1.200      1.800    -2.440665
    4F  4  3  0.00      1.200      1.800     1.000000
    Pseudization used: troullier-martins
    <PP_INPUTFILE>
@input
title='W',
zed=74.,
rel=1,
config='[Xe] 4f14 6s2 6p0 5d4',
iswitch=3,
dft='PBE'
/
@inputp
lpaw=.true.,
pseudotype=3,
file_pseudopw='W.pbe-spfn-kjpaw_psl.1.0.0.UPF',
author='ADC',
lloc=-1,
rcloc=1.5,
which_augfun='PSQ',
rmatch_augfun_nc=.true.,
nlcc=.true.,
new_core_ps=.true.,
rcore=1.2,
tm=.true.
/
8
5S  1  0  2.00  0.00  1.00  1.30  0.0
6S  2  0  2.00  0.00  1.00  1.30  0.0
5P  2  1  6.00  0.00  1.10  1.30  0.0
6P  3  1  0.00 -2.40  1.10  1.30  0.0
5D  3  2  4.00  0.00  1.50  1.80  0.0
5D  3  2  0.00  0.05  1.50  1.80  0.0
4F  4  3 14.00  0.00  1.20  1.80  0.0
4F  4  3  0.00  1.00  1.20  1.80  0.0
    </PP_INPUTFILE>
  </PP_INFO>
    <!-- END OF HUMAN READABLE SECTION -->
  <PP_HEADER generated="Generated using 'atomic' code by A. Dal Corso  v.7.2" author="ADC" date=" 5Mar2026" comment="" element=" W" pseudo_type="PAW" relativistic="scalar" is_ultrasoft="true" is_paw="true" is_coulomb="false" has_so="false" has_wfc="true" has_gipaw="false" paw_as_gipaw="false" core_correction="true" functional=" SLA  PW   PBX  PBC" z_valence="28.000000000000000" total_psenergy="-1308.9719011469501" wfc_cutoff="50.617586308294385" rho_cutoff="379.11062633356306" l_max="3" l_max_rho="6" l_local="-1" mesh_size="1273" number_of_wfc="5" number_of_proj="8"/>
  <PP_MESH mesh="1273" dx="1.2500000000000001E-002" xmin="-7.0000000000000000" rmax="100.00000000000000" zmesh="74.000000000000000">
    <PP_R>
   1.232272926425022E-05   1.247773011714895E-05   1.263468064076462E-05
   1.279360535893586E-05   1.295452910397324E-05   1.311747702053931E-05
   1.328247456957755E-05   1.344954753229069E-05   1.361872201416906E-05
   1.379002444906966E-05   1.396348160334645E-05   1.413912058003268E-05
   1.431696882307581E-05   1.449705412162563E-05   1.467940461437646E-05
   1.486404879396376E-05   1.505101551141626E-05   1.524033398066395E-05
   1.543203378310280E-05   1.562614487221700E-05   1.582269757825912E-05
   1.602172261298936E-05   1.622325107447434E-05   1.642731445194614E-05
   1.663394463072272E-05   1.684317389718986E-05   1.705503494384614E-05
   1.726956087441114E-05   1.748678520899795E-05   1.770674188935081E-05
   1.792946528414853E-05   1.815499019437469E-05   1.838335185875532E-05
   1.861458595926510E-05   1.884872862670269E-05   1.908581644633624E-05
   1.932588646361993E-05   1.956897618998237E-05   1.981512360868788E-05
   2.006436718077144E-05   2.031674585104827E-05   2.057229905419907E-05
   2.083106672093176E-05   2.109308928422071E-05   2.135840768562456E-05
   2.162706338168330E-05   2.189909835039604E-05   2.217455509778008E-05
   2.245347666451262E-05   2.273590663265596E-05   2.302188913246722E-05
   2.331146884929381E-05   2.360469103055567E-05   2.390160149281514E-05
   2.420224662893608E-05   2.450667341533264E-05   2.481492941930956E-05
   2.512706280649461E-05   2.544312234836456E-05   2.576315742986590E-05
   2.608721805713121E-05   2.641535486529280E-05   2.674761912639455E-05
   2.708406275740323E-05   2.742473832832073E-05   2.776969907039809E-05
   2.811899888445310E-05   2.847269234929235E-05   2.883083473023930E-05
   2.919348198776966E-05   2.956069078625521E-05   2.993251850281780E-05
   3.030902323629464E-05   3.069026381631631E-05   3.107629981249913E-05
   3.146719154375289E-05   3.186300008770585E-05   3.226378729024829E-05
   3.266961577519599E-05   3.308054895407545E-05   3.349665103603187E-05
   3.391798703786214E-05   3.434462279417376E-05   3.477662496767162E-05
   3.521406105957430E-05   3.565699942016110E-05   3.610550925945203E-05
   3.655966065802198E-05   3.701952457795092E-05   3.748517287391201E-05
   3.795667830439882E-05   3.843411454309416E-05   3.891755619038166E-05
   3.940707878500227E-05   3.990275881585738E-05   4.040467373396027E-05
   4.091290196453804E-05   4.142752291928571E-05   4.194861700877444E-05
   4.247626565501595E-05   4.301055130418469E-05   4.355155743950036E-05
   4.409936859427228E-05   4.465407036510786E-05   4.521574942528746E-05
   4.578449353830692E-05   4.636039157159101E-05   4.694353351037911E-05
   4.753401047178552E-05   4.813191471903689E-05   4.873733967588825E-05
   4.935037994122086E-05   4.997113130382340E-05   5.059969075735919E-05
   5.123615651552173E-05   5.188062802738059E-05   5.253320599292068E-05
   5.319399237877680E-05   5.386309043416609E-05   5.454060470702106E-05
   5.522664106032522E-05   5.592130668865455E-05   5.662471013492675E-05
   5.733696130736136E-05   5.805817149665324E-05   5.878845339336175E-05
   5.952792110551900E-05   6.027669017645948E-05   6.103487760287386E-05
   6.180260185309018E-05   6.257998288558440E-05   6.336714216772447E-05
   6.416420269474970E-05   6.497128900898899E-05   6.578852721932113E-05
   6.661604502087907E-05   6.745397171500293E-05   6.830243822944344E-05
   6.916157713881962E-05   7.003152268533412E-05   7.091241079974844E-05
   7.180437912262264E-05   7.270756702582189E-05   7.362211563429358E-05
   7.454816784811853E-05   7.548586836483918E-05   7.643536370206903E-05
   7.739680222038629E-05   7.837033414651543E-05   7.935611159680071E-05
   8.035428860097425E-05   8.136502112622377E-05   8.238846710156267E-05
   8.342478644250677E-05   8.447414107606164E-05   8.553669496602360E-05
   8.661261413859977E-05   8.770206670834983E-05   8.880522290445423E-05
   8.992225509731316E-05   9.105333782547928E-05   9.219864782293009E-05
   9.335836404668286E-05   9.453266770475690E-05   9.572174228448818E-05
   9.692577358119864E-05   9.814494972722826E-05   9.937946122133022E-05
   1.006295009584370E-04   1.018952642598010E-04   1.031769489035130E-04
   1.044747551554064E-04   1.057888858003483E-04   1.071195461739256E-04
   1.084669441945292E-04   1.098312903958407E-04   1.112127979597301E-04
   1.126116827495650E-04   1.140281633439396E-04   1.154624610708290E-04
   1.169148000421707E-04   1.183854071888842E-04   1.198745122963278E-04
   1.213823480402043E-04   1.229091500229165E-04   1.244551568103803E-04
   1.260206099693017E-04   1.276057541049218E-04   1.292108368992365E-04
   1.308361091496985E-04   1.324818248084031E-04   1.341482410217704E-04
   1.358356181707241E-04   1.375442199113766E-04   1.392743132162263E-04
   1.410261684158717E-04   1.428000592412521E-04   1.445962628664179E-04
   1.464150599518399E-04   1.482567346882633E-04   1.501215748411122E-04
   1.520098717954549E-04   1.539219206015321E-04   1.558580200208597E-04
   1.578184725729115E-04   1.598035845823867E-04   1.618136662270760E-04
   1.638490315863257E-04   1.659099986901140E-04   1.679968895687445E-04
   1.701100303031621E-04   1.722497510759063E-04   1.744163862227010E-04
   1.766102742846957E-04   1.788317580613641E-04   1.810811846640652E-04
   1.833589055702829E-04   1.856652766785425E-04   1.880006583640219E-04
   1.903654155348613E-04   1.927599176891791E-04   1.951845389728092E-04
   1.976396582377598E-04   2.001256591014108E-04   2.026429300064556E-04
   2.051918642815939E-04   2.077728602029923E-04   2.103863210565147E-04
   2.130326552007363E-04   2.157122761307517E-04   2.184256025427821E-04
   2.211730583996004E-04   2.239550729967737E-04   2.267720810297427E-04
   2.296245226617444E-04   2.325128435925863E-04   2.354374951282907E-04
   2.383989342516103E-04   2.413976236934329E-04   2.444340320050853E-04
   2.475086336315430E-04   2.506219089855660E-04   2.537743445227623E-04
   2.569664328175980E-04   2.601986726403639E-04   2.634715690351080E-04
   2.667856333985511E-04   2.701413835599923E-04   2.735393438622215E-04
   2.769800452434494E-04   2.804640253202668E-04   2.839918284716491E-04
   2.875640059240159E-04   2.911811158373618E-04   2.948437233924699E-04
   2.985524008792222E-04   3.023077277860216E-04   3.061102908903374E-04
   3.099606843503909E-04   3.138595097979943E-04   3.178073764325555E-04
   3.218049011162687E-04   3.258527084704983E-04   3.299514309733789E-04
   3.341017090586405E-04   3.383041912156777E-04   3.425595340908776E-04
   3.468684025902221E-04   3.512314699831804E-04   3.556494180079096E-04
   3.601229369777768E-04   3.646527258892228E-04   3.692394925309807E-04
   3.738839535946700E-04   3.785868347867814E-04   3.833488709420689E-04
   3.881708061383707E-04   3.930533938128713E-04   3.979973968798282E-04
   4.030035878497798E-04   4.080727489502500E-04   4.132056722479743E-04
   4.184031597726607E-04   4.236660236423093E-04   4.289950861901075E-04
   4.343911800929199E-04   4.398551485013977E-04   4.453878451717212E-04
   4.509901345990011E-04   4.566628921523589E-04   4.624070042117031E-04
   4.682233683062301E-04   4.741128932546627E-04   4.800764993072563E-04
   4.861151182895901E-04   4.922296937481653E-04   4.984211810978381E-04
   5.046905477711030E-04   5.110387733692579E-04   5.174668498154684E-04
   5.239757815097568E-04   5.305665854859435E-04   5.372402915705583E-04
   5.439979425437547E-04   5.508405943022463E-04   5.577693160242912E-04
   5.647851903367556E-04   5.718893134842746E-04   5.790827955005431E-04
   5.863667603817618E-04   5.937423462622624E-04   6.012107055923449E-04
   6.087730053183489E-04   6.164304270649919E-04   6.241841673200017E-04
   6.320354376210673E-04   6.399854647451477E-04   6.480354909001551E-04
   6.561867739190537E-04   6.644405874563998E-04   6.727982211873506E-04
   6.812609810091807E-04   6.898301892453299E-04   6.985071848520190E-04
   7.072933236274646E-04   7.161899784237270E-04   7.251985393612180E-04
   7.343204140459120E-04   7.435570277892873E-04   7.529098238310324E-04
   7.623802635645587E-04   7.719698267653418E-04   7.816800118221417E-04
   7.915123359711291E-04   8.014683355329556E-04   8.115495661528100E-04
   8.217576030434861E-04   8.320940412315167E-04   8.425604958063981E-04
   8.531586021729511E-04   8.638900163068590E-04   8.747564150134129E-04
   8.857594961895184E-04   8.969009790889952E-04   9.081826045912129E-04
   9.196061354731107E-04   9.311733566846295E-04   9.428860756276171E-04
   9.547461224382382E-04   9.667553502729354E-04   9.789156355979925E-04
   9.912288784827315E-04   1.003697002896404E-03   1.016321957008817E-03
   1.029105713494734E-03   1.042050269842118E-03   1.055157648664232E-03
   1.068429898015685E-03   1.081869091712440E-03   1.095477329655855E-03
   1.109256738160795E-03   1.123209470287872E-03   1.137337706179870E-03
   1.151643653402390E-03   1.166129547288790E-03   1.180797651289465E-03
   1.195650257325504E-03   1.210689686146820E-03   1.225918287694764E-03
   1.241338441469309E-03   1.256952556900858E-03   1.272763073726712E-03
   1.288772462372293E-03   1.304983224337147E-03   1.321397892585811E-03
   1.338019031943599E-03   1.354849239497348E-03   1.371891145001231E-03
   1.389147411287655E-03   1.406620734683333E-03   1.424313845430599E-03
   1.442229508114003E-03   1.460370522092288E-03   1.478739721935797E-03
   1.497339977869378E-03   1.516174196220861E-03   1.535245319875186E-03
   1.554556328734222E-03   1.574110240182392E-03   1.593910109558143E-03
   1.613959030631346E-03   1.634260136086712E-03   1.654816598013269E-03
   1.675631628400017E-03   1.696708479637802E-03   1.718050445027508E-03
   1.739660859294652E-03   1.761543099110428E-03   1.783700583619328E-03
   1.806136774973385E-03   1.828855178873145E-03   1.851859345115439E-03
   1.875152868148044E-03   1.898739387631327E-03   1.922622589006941E-03
   1.946806204073693E-03   1.971294011570641E-03   1.996089837767525E-03
   2.021197557062637E-03   2.046621092588198E-03   2.072364416823358E-03
   2.098431552214906E-03   2.124826571805779E-03   2.151553599871491E-03
   2.178616812564553E-03   2.206020438567006E-03   2.233768759751170E-03
   2.261866111848683E-03   2.290316885127976E-03   2.319125525080255E-03
   2.348296533114123E-03   2.377834467258940E-03   2.407743942877007E-03
   2.438029633384741E-03   2.468696270982902E-03   2.499748647396004E-03
   2.531191614621041E-03   2.563030085685612E-03   2.595269035415597E-03
   2.627913501212482E-03   2.660968583840460E-03   2.694439448223448E-03
   2.728331324252101E-03   2.762649507601001E-03   2.797399360556119E-03
   2.832586312852673E-03   2.868215862523556E-03   2.904293576758387E-03
   2.940825092773419E-03   2.977816118692351E-03   3.015272434438241E-03
   3.053199892636633E-03   3.091604419530034E-03   3.130492015903904E-03
   3.169868758024295E-03   3.209740798587272E-03   3.250114367680300E-03
   3.290995773755686E-03   3.332391404616305E-03   3.374307728413699E-03
   3.416751294658736E-03   3.459728735245001E-03   3.503246765485022E-03
   3.547312185159560E-03   3.591931879580092E-03   3.637112820664647E-03
   3.682862068027198E-03   3.729186770080719E-03   3.776094165154155E-03
   3.823591582623419E-03   3.871686444056623E-03   3.920386264373721E-03
   3.969698653020715E-03   4.019631315158659E-03   4.070192052867599E-03
   4.121388766365666E-03   4.173229455243513E-03   4.225722219714242E-03
   4.278875261879100E-03   4.332696887009066E-03   4.387195504842564E-03
   4.442379630899516E-03   4.498257887811888E-03   4.554839006671006E-03
   4.612131828391810E-03   4.670145305094251E-03   4.728888501502101E-03
   4.788370596359308E-03   4.848600883864213E-03   4.909588775121777E-03
   4.971343799614085E-03   5.033875606689366E-03   5.097193967069690E-03
   5.161308774377690E-03   5.226230046682453E-03   5.291967928064851E-03
   5.358532690202608E-03   5.425934733975226E-03   5.494184591089180E-03
   5.563292925723497E-03   5.633270536196059E-03   5.704128356650886E-03
   5.775877458766579E-03   5.848529053486318E-03   5.922094492769589E-03
   5.996585271365944E-03   6.072013028611103E-03   6.148389550245590E-03
   6.225726770256299E-03   6.304036772741198E-03   6.383331793797496E-03
   6.463624223433570E-03   6.544926607504900E-03   6.627251649674410E-03
   6.710612213397430E-03   6.795021323931634E-03   6.880492170372288E-03
   6.967038107713031E-03   7.054672658932654E-03   7.143409517108077E-03
   7.233262547553923E-03   7.324245789989017E-03   7.416373460730089E-03
   7.509659954913131E-03   7.604119848742650E-03   7.699767901769230E-03
   7.796619059195767E-03   7.894688454212649E-03   7.993991410362371E-03
   8.094543443933861E-03   8.196360266386938E-03   8.299457786807268E-03
   8.403852114392167E-03   8.509559560967708E-03   8.616596643537483E-03
   8.724980086863406E-03   8.834726826079019E-03   8.945854009335598E-03
   9.058379000481617E-03   9.172319381775876E-03   9.287692956634759E-03
   9.404517752414082E-03   9.522812023225861E-03   9.642594252790579E-03
   9.763883157325307E-03   9.886697688468133E-03   1.001105703623943E-02
   1.013698063204030E-02   1.026448815168877E-02   1.039359951849420E-02
   1.052433490637034E-02   1.065671474298752E-02   1.079075971296456E-02
   1.092649076110071E-02   1.106392909564841E-02   1.120309619162703E-02
   1.134401379417848E-02   1.148670392196484E-02   1.163118887060889E-02
   1.177749121617782E-02   1.192563381871075E-02   1.207563982579075E-02
   1.222753267616162E-02   1.238133610339024E-02   1.253707413957505E-02
   1.269477111910102E-02   1.285445168244208E-02   1.301614078001111E-02
   1.317986367605856E-02   1.334564595262003E-02   1.351351351351351E-02
   1.368349258838695E-02   1.385560973681661E-02   1.402989185245710E-02
   1.420636616724358E-02   1.438506025564675E-02   1.456600203898151E-02
   1.474921978976962E-02   1.493474213615741E-02   1.512259806638894E-02
   1.531281693333549E-02   1.550542845908206E-02   1.570046273957140E-02
   1.589795024930664E-02   1.609792184611296E-02   1.630040877595920E-02
   1.650544267784014E-02   1.671305558872007E-02   1.692327994853872E-02
   1.713614860528000E-02   1.735169482010461E-02   1.756995227254718E-02
   1.779095506577867E-02   1.801473773193518E-02   1.824133523751357E-02
   1.847078298883508E-02   1.870311683757772E-02   1.893837308637802E-02
   1.917658849450349E-02   1.941780028359629E-02   1.966204614348921E-02
   1.990936423809481E-02   2.015979321136853E-02   2.041337219334694E-02
   2.067014080626189E-02   2.093013917073153E-02   2.119340791202931E-02
   2.145998816643168E-02   2.172992158764573E-02   2.200325035331772E-02
   2.228001717162335E-02   2.256026528794112E-02   2.284403849160935E-02
   2.313138112276845E-02   2.342233807928914E-02   2.371695482378782E-02
   2.401527739073025E-02   2.431735239362445E-02   2.462322703230419E-02
   2.493294910030407E-02   2.524656699232733E-02   2.556412971180770E-02
   2.588568687856617E-02   2.621128873656426E-02   2.654098616175471E-02
   2.687483067003097E-02   2.721287442527672E-02   2.755517024751643E-02
   2.790177162116875E-02   2.825273270340347E-02   2.860810833260371E-02
   2.896795403693459E-02   2.933232604301950E-02   2.970128128472572E-02
   3.007487741206040E-02   3.045317280017849E-02   3.083622655850411E-02
   3.122409853996628E-02   3.161684935035124E-02   3.201454035777218E-02
   3.241723370225808E-02   3.282499230546336E-02   3.323787988049933E-02
   3.365596094188963E-02   3.407930081565067E-02   3.450796564949901E-02
   3.494202242318712E-02   3.538153895896894E-02   3.582658393219740E-02
   3.627722688205503E-02   3.673353822241953E-02   3.719558925286631E-02
   3.766345216980881E-02   3.813720007777972E-02   3.861690700085359E-02
   3.910264789421299E-02   3.959449865586088E-02   4.009253613847930E-02
   4.059683816143827E-02   4.110748352295494E-02   4.162455201240582E-02
   4.214812442279453E-02   4.267828256337525E-02   4.321510927243614E-02
   4.375868843024275E-02   4.430910497214424E-02   4.486644490184528E-02
   4.543079530484365E-02   4.600224436203808E-02   4.658088136350644E-02
   4.716679672245731E-02   4.776008198935775E-02   4.836082986623758E-02
   4.896913422117487E-02   4.958509010296279E-02   5.020879375596086E-02
   5.084034263513398E-02   5.147983542127922E-02   5.212737203644558E-02
   5.278305365954668E-02   5.344698274216996E-02   5.411926302458553E-02
   5.479999955195509E-02   5.548929869074610E-02   5.618726814535149E-02
   5.689401697491838E-02   5.760965561038948E-02   5.833429587175736E-02
   5.906805098553725E-02   5.981103560245862E-02   6.056336581537925E-02
   6.132515917742578E-02   6.209653472036068E-02   6.287761297318201E-02
   6.366851598095601E-02   6.446936732388653E-02   6.528029213662545E-02
   6.610141712782441E-02   6.693287059993396E-02   6.777478246925085E-02
   6.862728428621731E-02   6.949050925597691E-02   7.036459225918716E-02
   7.124966987309581E-02   7.214588039288081E-02   7.305336385325902E-02
   7.397226205036764E-02   7.490271856391924E-02   7.584487877963722E-02
   7.679888991197227E-02   7.776490102710447E-02   7.874306306623621E-02
   7.973352886917592E-02   8.073645319822056E-02   8.175199276233716E-02
   8.278030624164846E-02   8.382155431222800E-02   8.487589967120494E-02
   8.594350706218688E-02   8.702454330100086E-02   8.811917730175828E-02
   8.922758010324912E-02   9.034992489566585E-02   9.148638704766586E-02
   9.263714413377273E-02   9.380237596212210E-02   9.498226460255813E-02
   9.617699441508104E-02   9.738675207865494E-02   9.861172662037618E-02
   9.985210944500879E-02   1.011080943648931E-01   1.023798776302277E-01
   1.036676579597355E-01   1.049716365717132E-01   1.062920172154715E-01
   1.076290062031727E-01   1.089828124420659E-01   1.103536474671304E-01
   1.117417254741280E-01   1.131472633530712E-01   1.145704807221133E-01
   1.160115999618635E-01   1.174708462501352E-01   1.189484475971299E-01
   1.204446348810640E-01   1.219596418842450E-01   1.234937053295990E-01
   1.250470649176607E-01   1.266199633640261E-01   1.282126464372774E-01
   1.298253629973853E-01   1.314583650345931E-01   1.331119077087916E-01
   1.347862493893882E-01   1.364816516956764E-01   1.381983795377164E-01
   1.399367011577256E-01   1.416968881719942E-01   1.434792156133245E-01
   1.452839619740048E-01   1.471114092493263E-01   1.489618429816433E-01
   1.508355523049914E-01   1.527328299902647E-01   1.546539724909611E-01
   1.565992799895054E-01   1.585690564441515E-01   1.605636096364783E-01
   1.625832512194803E-01   1.646282967662631E-01   1.666990658193550E-01
   1.687958819406326E-01   1.709190727618814E-01   1.730689700359870E-01
   1.752459096887721E-01   1.774502318714869E-01   1.796822810139566E-01
   1.819424058784015E-01   1.842309596139292E-01   1.865482998117175E-01
   1.888947885608871E-01   1.912707925050785E-01   1.936766828997425E-01
   1.961128356701476E-01   1.985796314701208E-01   2.010774557415250E-01
   2.036066987744837E-01   2.061677557683673E-01   2.087610268935409E-01
   2.113869173538942E-01   2.140458374501545E-01   2.167382026439956E-01
   2.194644336229575E-01   2.222249563661765E-01   2.250202022109479E-01
   2.278506079201223E-01   2.307166157503495E-01   2.336186735211846E-01
   2.365572346850580E-01   2.395327583981303E-01   2.425457095920359E-01
   2.455965590465279E-01   2.486857834630415E-01   2.518138655391759E-01
   2.549812940441201E-01   2.581885638950225E-01   2.614361762343219E-01
   2.647246385080543E-01   2.680544645451396E-01   2.714261746376712E-01
   2.748402956222112E-01   2.782973609621086E-01   2.817979108308572E-01
   2.853424921964949E-01   2.889316589070722E-01   2.925659717771902E-01
   2.962459986756280E-01   2.999723146140765E-01   3.037455018369814E-01
   3.075661499125234E-01   3.114348558247378E-01   3.153522240667935E-01
   3.193188667354493E-01   3.233354036266912E-01   3.274024623325808E-01
   3.315206783393159E-01   3.356906951265250E-01   3.399131642678162E-01
   3.441887455325824E-01   3.485181069890954E-01   3.529019251088918E-01
   3.573408848724703E-01   3.618356798763264E-01   3.663870124413231E-01
   3.709955937224338E-01   3.756621438198607E-01   3.803873918915494E-01
   3.851720762671259E-01   3.900169445632573E-01   3.949227538004722E-01
   3.998902705214457E-01   4.049202709107706E-01   4.100135409162427E-01
   4.151708763716613E-01   4.203930831211846E-01   4.256809771452428E-01
   4.310353846880338E-01   4.364571423866314E-01   4.419470974017051E-01
   4.475061075498961E-01   4.531350414378509E-01   4.588347785979399E-01
   4.646062096256923E-01   4.704502363189466E-01   4.763677718187641E-01
   4.823597407521069E-01   4.884270793763099E-01   4.945707357253789E-01
   5.007916697581162E-01   5.070908535081217E-01   5.134692712356730E-01
   5.199279195815154E-01   5.264678077225948E-01   5.330899575297372E-01
   5.397954037273234E-01   5.465851940549653E-01   5.534603894312136E-01
   5.604220641193354E-01   5.674713058951623E-01   5.746092162170646E-01
   5.818369103980535E-01   5.891555177800474E-01   5.965661819103417E-01
   6.040700607202819E-01   6.116683267061995E-01   6.193621671126150E-01
   6.271527841177429E-01   6.350413950213426E-01   6.430292324349149E-01
   6.511175444743084E-01   6.593075949547359E-01   6.676006635882458E-01
   6.759980461836866E-01   6.845010548491711E-01   6.931110181971041E-01
   7.018292815517769E-01   7.106572071595737E-01   7.195961744018338E-01
   7.286475800103726E-01   7.378128382857330E-01   7.470933813181687E-01
   7.564906592114075E-01   7.660061403092415E-01   7.756413114249492E-01
   7.853976780736215E-01   7.952767647073981E-01   8.052801149536620E-01
   8.154092918562440E-01   8.256658781196402E-01   8.360514763563227E-01
   8.465677093371475E-01   8.572162202449101E-01   8.679986729311074E-01
   8.789167521759056E-01   8.899721639514013E-01   9.011666356881786E-01
   9.125019165452183E-01   9.239797776832193E-01   9.356020125413330E-01
   9.473704371174034E-01   9.592868902517153E-01   9.713532339143118E-01
   9.835713534959425E-01   9.959431581026466E-01   1.008470580854066E+00
   1.021155579185496E+00   1.034000135153728E+00   1.047006255746770E+00
   1.060175973197421E+00   1.073511345300829E+00   1.087014455736018E+00
   1.100687414391461E+00   1.114532357694772E+00   1.128551448946504E+00
   1.142746878658189E+00   1.157120864894603E+00   1.171675653620337E+00
   1.186413519050742E+00   1.201336764007275E+00   1.216447720277322E+00
   1.231748748978547E+00   1.247242240927809E+00   1.262930617014753E+00
   1.278816328580056E+00   1.294901857798471E+00   1.311189718066668E+00
   1.327682454395947E+00   1.344382643809918E+00   1.361292895747150E+00
   1.378415852468915E+00   1.395754189472039E+00   1.413310615906949E+00
   1.431087875001000E+00   1.449088744487089E+00   1.467316037037697E+00
   1.485772600704373E+00   1.504461319362735E+00   1.523385113163099E+00
   1.542546938986744E+00   1.561949790907941E+00   1.581596700661783E+00
   1.601490738117883E+00   1.621635011760075E+00   1.642032669172094E+00
   1.662686897529413E+00   1.683600924097236E+00   1.704778016734759E+00
   1.726221484405798E+00   1.747934677695797E+00   1.769920989335386E+00
   1.792183854730495E+00   1.814726752499129E+00   1.837553205014934E+00
   1.860666778957550E+00   1.884071085869935E+00   1.907769782722662E+00
   1.931766572485325E+00   1.956065204705151E+00   1.980669476092854E+00
   2.005583231115900E+00   2.030810362599202E+00   2.056354812333373E+00
   2.082220571690661E+00   2.108411682248582E+00   2.134932236421452E+00
   2.161786378099820E+00   2.188978303297951E+00   2.216512260809486E+00
   2.244392552871299E+00   2.272623535835749E+00   2.301209620851367E+00
   2.330155274552085E+00   2.359465019755195E+00   2.389143436168006E+00
   2.419195161103469E+00   2.449624890204748E+00   2.480437378178919E+00
   2.511637439539923E+00   2.543229949360817E+00   2.575219844035540E+00
   2.607612122050224E+00   2.640411844764202E+00   2.673624137200888E+00
   2.707254188848538E+00   2.741307254471147E+00   2.775788654929505E+00
   2.810703778012576E+00   2.846058079279389E+00   2.881857082911433E+00
   2.918106382575866E+00   2.954811642299516E+00   2.991978597353881E+00
   3.029613055151315E+00   3.067720896152407E+00   3.106308074784849E+00
   3.145380620373815E+00   3.184944638084035E+00   3.225006309873782E+00
   3.265571895460767E+00   3.306647733300276E+00   3.348240241575545E+00
   3.390355919200603E+00   3.433001346835774E+00   3.476183187915878E+00
   3.519908189691443E+00   3.564183184282963E+00   3.609015089748407E+00
   3.654410911164230E+00   3.700377741719872E+00   3.746922763826135E+00
   3.794053250237426E+00   3.841776565188121E+00   3.890100165543289E+00
   3.939031601963786E+00   3.988578520086112E+00   4.038748661717035E+00
   4.089549866043241E+00   4.140990070856279E+00   4.193077313792790E+00
   4.245819733590462E+00   4.299225571359703E+00   4.353303171871304E+00
   4.408060984860382E+00   4.463507566346607E+00   4.519651579971149E+00
   4.576501798350373E+00   4.634067104446546E+00   4.692356492955880E+00
   4.751379071713902E+00   4.811144063118636E+00   4.871660805571591E+00
   4.932938754936877E+00   4.994987486018774E+00   5.057816694057732E+00
   5.121436196245345E+00   5.185855933258273E+00   5.251085970811470E+00
   5.317136501231033E+00   5.384017845046702E+00   5.451740452604528E+00
   5.520314905699737E+00   5.589751919230119E+00   5.660062342870329E+00
   5.731257162767089E+00   5.803347503255864E+00   5.876344628599036E+00
   5.950259944745931E+00   6.025105001115103E+00   6.100891492398858E+00
   6.177631260390662E+00   6.255336295835400E+00   6.334018740302932E+00
   6.413690888085310E+00   6.494365188117694E+00   6.576054245923611E+00
   6.658770825584551E+00   6.742527851734351E+00   6.827338411578777E+00
   6.913215756940327E+00   7.000173306328946E+00   7.088224647038655E+00
   7.177383537270556E+00   7.267663908282668E+00   7.359079866566614E+00
   7.451645696051875E+00   7.545375860337648E+00   7.640285004952773E+00
   7.736387959644214E+00   7.833699740694141E+00   7.932235553266335E+00
   8.032010793782003E+00   8.133041052325435E+00   8.235342115080110E+00
   8.338929966795185E+00   8.443820793283255E+00   8.550030983949380E+00
   8.657577134351904E+00   8.766476048795662E+00   8.876744742957564E+00
   8.988400446545430E+00   9.101460605990127E+00   9.215942887171561E+00
   9.331865178179113E+00   9.449245592106564E+00   9.568102469882424E+00
   9.688454383135674E+00   9.810320137097586E+00   9.933718773540187E+00
   1.005866957375145E+01   1.018519206154813E+01   1.031330600632637E+01
   1.044303142615068E+01   1.057438859088185E+01   1.070739802534408E+01
   1.084208051253215E+01   1.097845709685870E+01   1.111654908744246E+01
   1.125637806143796E+01   1.139796586740681E+01   1.154133462873178E+01
   1.168650674707354E+01   1.183350490587089E+01   1.198235207388526E+01
   1.213307150878944E+01   1.228568676080179E+01   1.244022167636596E+01
   1.259670040187687E+01   1.275514738745378E+01   1.291558739076051E+01
   1.307804548087401E+01   1.324254704220141E+01   1.340911777844630E+01
   1.357778371662516E+01   1.374857121113394E+01   1.392150694786613E+01
   1.409661794838249E+01   1.427393157413304E+01   1.445347553073262E+01